 &FCI NORB= 23,NELEC=  8,MS2= 0,
  ORBSYM=1,1,1,1,1,1,1,1,1,1,2,2,2,2,3,3,3,3,3,3,3,4,4,
  ISYM=1,
  OCC=  2,  1,  1,  0,  0,  0,  0,  0,
  CLOSED=  2,  1,  1,  0,  0,  0,  0,  0,
 /
  0.7477155275730514E+00   1   1   1   1
  0.9244207616812069E-02   2   1   1   1
  0.1273555463810297E+00   2   1   2   1
  0.6752633578985712E+00   2   2   1   1
 -0.7056848807820233E-01   2   2   2   1
  0.7130223843529349E+00   2   2   2   2
 -0.1097583872711597E+00   3   1   1   1
 -0.1886263836555194E-01   3   1   2   1
 -0.7491619426121005E-01   3   1   2   2
  0.3852978905047563E-01   3   1   3   1
 -0.6782989985134642E-01   3   2   1   1
  0.6696298653608176E-02   3   2   2   1
 -0.6640464686462826E-01   3   2   2   2
  0.2265743405499738E-01   3   2   3   1
  0.2414236471811909E-01   3   2   3   2
  0.3720473029317113E+00   3   3   1   1
  0.3037579994954741E-01   3   3   2   1
  0.3457338501958063E+00   3   3   2   2
 -0.2192102500246060E-01   3   3   3   1
 -0.3968957305019505E-02   3   3   3   2
  0.3044159611751819E+00   3   3   3   3
 -0.6724696589905763E-01   4   1   1   1
 -0.1491122276649071E-01   4   1   2   1
 -0.3991546246382471E-01   4   1   2   2
  0.3489188936927498E-01   4   1   3   1
  0.2244672216637342E-01   4   1   3   2
 -0.1077916854144272E-01   4   1   3   3
  0.4944927055445840E-01   4   1   4   1
 -0.6418035948536140E-01   4   2   1   1
  0.1291121419407983E-01   4   2   2   1
 -0.6835888597878968E-01   4   2   2   2
  0.2646828645129290E-01   4   2   3   1
  0.2347796320743272E-01   4   2   3   2
 -0.6446166315594523E-02   4   2   3   3
  0.3641283569633374E-01   4   2   4   1
  0.4013261150671943E-01   4   2   4   2
  0.1158996469211351E+00   4   3   1   1
  0.1987716380833143E-01   4   3   2   1
  0.9298570207229814E-01   4   3   2   2
 -0.2407426416952596E-01   4   3   3   1
 -0.1312204805249756E-01   4   3   3   2
  0.3933591871234091E-01   4   3   3   3
 -0.8393990862476157E-02   4   3   4   1
 -0.4163442219391154E-02   4   3   4   2
  0.4104598053124124E-01   4   3   4   3
  0.5058927584288332E+00   4   4   1   1
  0.6247431771615816E-01   4   4   2   1
  0.4526322574751625E+00   4   4   2   2
 -0.3843518931935003E-01   4   4   3   1
 -0.9269257519331664E-02   4   4   3   2
  0.3485138493824251E+00   4   4   3   3
  0.1125447477096491E-01   4   4   4   1
  0.1711940144553598E-01   4   4   4   2
  0.9563499558578503E-01   4   4   4   3
  0.5143535796023911E+00   4   4   4   4
 -0.1861878292905329E-02   5   1   1   1
 -0.2939799772992547E-01   5   1   2   1
  0.3043213721641803E-01   5   1   2   2
  0.8685587385766408E-02   5   1   3   1
  0.7891028803575614E-02   5   1   3   2
 -0.3605158577385818E-03   5   1   3   3
  0.4302308589359725E-02   5   1   4   1
 -0.3827386528769394E-02   5   1   4   2
 -0.8616282162117376E-02   5   1   4   3
 -0.1217914805912363E-01   5   1   4   4
  0.3491501063888282E-01   5   1   5   1
 -0.1445805294922377E+00   5   2   1   1
  0.4753451689917130E-01   5   2   2   1
 -0.1574528309813159E+00   5   2   2   2
  0.3653769316772158E-01   5   2   3   1
  0.2800703100898461E-01   5   2   3   2
 -0.2144917550660942E-01   5   2   3   3
  0.2117972959570058E-01   5   2   4   1
  0.3749821789941307E-01   5   2   4   2
 -0.3030523289395690E-01   5   2   4   3
 -0.5119915169091267E-01   5   2   4   4
 -0.1271143869486485E-01   5   2   5   1
  0.1136369176014177E+00   5   2   5   2
  0.5120564025700845E-01   5   3   1   1
  0.2707914366728715E-01   5   3   2   1
  0.3454077632066846E-01   5   3   2   2
 -0.1579220059045346E-01   5   3   3   1
 -0.3090428279096530E-03   5   3   3   2
  0.2686877349687349E-01   5   3   3   3
 -0.1423324889192420E-01   5   3   4   1
 -0.1030869186192087E-01   5   3   4   2
  0.1171625858457498E-01   5   3   4   3
  0.3705101985622719E-01   5   3   4   4
  0.4558505998209591E-02   5   3   5   1
 -0.1431916447255390E-01   5   3   5   2
  0.2556450755922795E-01   5   3   5   3
  0.3107809200357988E-01   5   4   1   1
 -0.1258714130780901E-01   5   4   2   1
  0.4089284606406233E-01   5   4   2   2
 -0.1529976443121027E-01   5   4   3   1
 -0.1431059236743397E-01   5   4   3   2
  0.1234658905494066E-02   5   4   3   3
 -0.2114490273960088E-01   5   4   4   1
 -0.2185656520258675E-01   5   4   4   2
  0.5690049824398121E-02   5   4   4   3
 -0.1167228040063306E-01   5   4   4   4
  0.2808654020159471E-02   5   4   5   1
 -0.2811669200662028E-01   5   4   5   2
  0.7098443196998190E-02   5   4   5   3
  0.2391175508844406E-01   5   4   5   4
  0.5715977667870874E+00   5   5   1   1
 -0.3064029179684623E-01   5   5   2   1
  0.5842983061539968E+00   5   5   2   2
 -0.5445410983959220E-01   5   5   3   1
 -0.4553996429143056E-01   5   5   3   2
  0.3315882109238149E+00   5   5   3   3
 -0.2904232500348772E-01   5   5   4   1
 -0.4527019331538482E-01   5   5   4   2
  0.7454649950338499E-01   5   5   4   3
  0.4193879503996791E+00   5   5   4   4
  0.1755938268616365E-01   5   5   5   1
 -0.1012445873611360E+00   5   5   5   2
  0.3032991423015724E-01   5   5   5   3
  0.2567983312760536E-01   5   5   5   4
  0.5206586554796259E+00   5   5   5   5
 -0.4647215591022252E-01   6   1   1   1
  0.2389941161058121E-01   6   1   2   1
 -0.2528234468037326E-01   6   1   2   2
  0.1253195643479184E-01   6   1   3   1
  0.4771424426193469E-02   6   1   3   2
 -0.4130146306903668E-02   6   1   3   3
  0.5624167025462130E-02   6   1   4   1
  0.7864200724484816E-02   6   1   4   2
 -0.8086437897657435E-02   6   1   4   3
 -0.1054522141181932E-01   6   1   4   4
  0.4043258271860957E-02   6   1   5   1
  0.3929852083082560E-01   6   1   5   2
  0.1137055796773868E-02   6   1   5   3
 -0.2247055337063953E-02   6   1   5   4
 -0.1897177246532657E-01   6   1   5   5
  0.3756509145327590E-01   6   1   6   1
  0.6318784158243235E-01   6   2   1   1
  0.4693406549030249E-01   6   2   2   1
  0.3074368038266076E-01   6   2   2   2
 -0.1785865355900211E-01   6   2   3   1
  0.5183729783598295E-02   6   2   3   2
  0.3037311320120599E-01   6   2   3   3
 -0.8772460153494364E-02   6   2   4   1
 -0.1800543365264806E-02   6   2   4   2
  0.1831475540505403E-01   6   2   4   3
  0.5781913904296292E-01   6   2   4   4
  0.1276173890315694E-01   6   2   5   1
 -0.1455129442160942E-01   6   2   5   2
  0.2816632324306763E-01   6   2   5   3
  0.2220470586773785E-02   6   2   5   4
  0.3132081510354897E-01   6   2   5   5
  0.3142134597469943E-02   6   2   6   1
  0.5823684326438965E-01   6   2   6   2
  0.2999583391874600E-01   6   3   1   1
 -0.1285651013586801E-01   6   3   2   1
  0.3752243686187303E-01   6   3   2   2
 -0.4552755408119059E-02   6   3   3   1
 -0.6193229855009511E-02   6   3   3   2
  0.2588468515937564E-02   6   3   3   3
 -0.4221924662496903E-02   6   3   4   1
 -0.3974893194979017E-02   6   3   4   2
  0.3410654250798128E-02   6   3   4   3
  0.5195438778771074E-02   6   3   4   4
  0.3013533798901640E-02   6   3   5   1
 -0.2680953916100376E-02   6   3   5   2
  0.1174360105796983E-02   6   3   5   3
  0.7972095214482958E-02   6   3   5   4
  0.3065803101943903E-01   6   3   5   5
  0.3055566885767271E-02   6   3   6   1
 -0.2717042965253122E-02   6   3   6   2
  0.1428333475314712E-01   6   3   6   3
 -0.6654876899624254E-02   6   4   1   1
  0.8207240850725300E-02   6   4   2   1
 -0.5569345615195543E-02   6   4   2   2
 -0.4666100692620308E-04   6   4   3   1
  0.5392743502943437E-02   6   4   3   2
  0.1429090581905240E-02   6   4   3   3
 -0.1951387502757430E-02   6   4   4   1
  0.3460400413923359E-02   6   4   4   2
 -0.3878865953057759E-02   6   4   4   3
 -0.1893886398643513E-02   6   4   4   4
  0.8275482025266746E-02   6   4   5   1
  0.7637230743992299E-02   6   4   5   2
  0.1040784325709496E-01   6   4   5   3
  0.6813712540586996E-02   6   4   5   4
 -0.7153136976122384E-02   6   4   5   5
  0.1232862127136703E-01   6   4   6   1
  0.1297451827074031E-01   6   4   6   2
  0.8289781908327441E-02   6   4   6   3
  0.2388093509672803E-01   6   4   6   4
  0.6492526313389791E-02   6   5   1   1
  0.6245986327353227E-01   6   5   2   1
 -0.3307687475134732E-01   6   5   2   2
  0.9778577317535245E-03   6   5   3   1
  0.1997973400466145E-01   6   5   3   2
  0.2769869522807698E-01   6   5   3   3
  0.1063305418291317E-01   6   5   4   1
  0.1869133266008866E-01   6   5   4   2
  0.1210401148654441E-01   6   5   4   3
  0.5576558493929137E-01   6   5   4   4
 -0.1171046664041218E-02   6   5   5   1
  0.2324493463496213E-01   6   5   5   2
  0.2103497125111529E-01   6   5   5   3
 -0.1732555322101845E-01   6   5   5   4
 -0.1476410565797792E-01   6   5   5   5
  0.7759437468214736E-02   6   5   6   1
  0.4231384832165678E-01   6   5   6   2
 -0.1178130705150366E-01   6   5   6   3
  0.4276625314896540E-02   6   5   6   4
  0.6566967244989599E-01   6   5   6   5
  0.5113112223273857E+00   6   6   1   1
  0.7195409628409172E-02   6   6   2   1
  0.5017792066911537E+00   6   6   2   2
 -0.3321174512656905E-01   6   6   3   1
 -0.2405290274467148E-01   6   6   3   2
  0.3308561373781637E+00   6   6   3   3
 -0.3609242291328189E-03   6   6   4   1
 -0.6382349977440249E-02   6   6   4   2
  0.7300585137478666E-01   6   6   4   3
  0.4361713618974545E+00   6   6   4   4
  0.2337937809651261E-02   6   6   5   1
 -0.3820386267670714E-01   6   6   5   2
  0.2032161718216682E-01   6   6   5   3
  0.5917205961337713E-03   6   6   5   4
  0.4580300635619680E+00   6   6   5   5
  0.1624437460090722E-03   6   6   6   1
  0.3101769253629150E-01   6   6   6   2
  0.2406364518776860E-01   6   6   6   3
 -0.4198817654409076E-02   6   6   6   4
  0.1964286558112915E-01   6   6   6   5
  0.4659717512866844E+00   6   6   6   6
 -0.1032058520498338E+00   7   1   1   1
  0.4989556408696846E-02   7   1   2   1
 -0.9971263041820948E-01   7   1   2   2
  0.3252373193114932E-01   7   1   3   1
  0.2025103787618265E-01   7   1   3   2
 -0.2154737630242742E-01   7   1   3   3
  0.1984004480844945E-01   7   1   4   1
  0.2543242624636939E-01   7   1   4   2
 -0.2544605283965100E-01   7   1   4   3
 -0.4463018200163755E-01   7   1   4   4
  0.1115227105534869E-02   7   1   5   1
  0.6286300131196577E-01   7   1   5   2
 -0.1795417397312905E-01   7   1   5   3
 -0.2397290393529423E-01   7   1   5   4
 -0.6895102883275926E-01   7   1   5   5
  0.1574996368832485E-01   7   1   6   1
 -0.2048070008808551E-01   7   1   6   2
 -0.7264690424849354E-02   7   1   6   3
 -0.3777899754922787E-02   7   1   6   4
  0.7604489930391541E-02   7   1   6   5
 -0.3730754810032634E-01   7   1   6   6
  0.6337393285704394E-01   7   1   7   1
  0.2458773379623897E-01   7   2   1   1
 -0.4481314511834347E-01   7   2   2   1
  0.5891483734275027E-01   7   2   2   2
  0.1807558348539876E-02   7   2   3   1
 -0.2003824109941918E-02   7   2   3   2
 -0.1361486393113881E-02   7   2   3   3
  0.3475661120156855E-02   7   2   4   1
 -0.1299967427582347E-01   7   2   4   2
 -0.2289699663888641E-02   7   2   4   3
 -0.6709373559185433E-02   7   2   4   4
  0.2765393682188530E-01   7   2   5   1
 -0.3812835760876762E-01   7   2   5   2
 -0.2506559811192577E-04   7   2   5   3
  0.6507641836919917E-02   7   2   5   4
  0.3940209277614773E-01   7   2   5   5
 -0.1289205558319784E-01   7   2   6   1
  0.1961263778307291E-02   7   2   6   2
  0.2153243735044812E-02   7   2   6   3
 -0.3322118177680637E-02   7   2   6   4
 -0.1421066173565441E-01   7   2   6   5
  0.8549647464409612E-02   7   2   6   6
 -0.1413804757278718E-01   7   2   7   1
  0.3891767731128421E-01   7   2   7   2
  0.7569912088018431E-01   7   3   1   1
  0.4061292239571594E-02   7   3   2   1
  0.5980622285339905E-01   7   3   2   2
 -0.1924881831777465E-01   7   3   3   1
 -0.1498451974174655E-01   7   3   3   2
  0.1723983318814287E-01   7   3   3   3
 -0.1585192640049054E-01   7   3   4   1
 -0.1366757801094701E-01   7   3   4   2
  0.1687193163498416E-01   7   3   4   3
  0.3371745042679193E-01   7   3   4   4
 -0.8065689136916569E-02   7   3   5   1
 -0.2077234878581423E-01   7   3   5   2
  0.5622921690893776E-02   7   3   5   3
  0.6415708513053481E-02   7   3   5   4
  0.4888523292857711E-01   7   3   5   5
 -0.9203627097989744E-02   7   3   6   1
  0.3499431305519832E-02   7   3   6   2
  0.3180138723080497E-02   7   3   6   3
 -0.5581616886058027E-02   7   3   6   4
 -0.4053681709723540E-02   7   3   6   5
  0.3661772270964386E-01   7   3   6   6
 -0.1607491894845252E-01   7   3   7   1
 -0.9424488251211227E-03   7   3   7   2
  0.1764862179553180E-01   7   3   7   3
 -0.1209001642502764E-02   7   4   1   1
  0.7123326333797377E-02   7   4   2   1
 -0.1392732567284794E-01   7   4   2   2
 -0.9184894095270089E-02   7   4   3   1
 -0.6302357423594638E-02   7   4   3   2
 -0.1731391273938480E-02   7   4   3   3
 -0.1283584159420256E-01   7   4   4   1
 -0.1068099660601961E-01   7   4   4   2
  0.2058336797616286E-02   7   4   4   3
 -0.1389846391294975E-01   7   4   4   4
 -0.1312786071193337E-01   7   4   5   1
 -0.6053504679906943E-02   7   4   5   2
  0.8559788934254719E-03   7   4   5   3
  0.6305034987479727E-02   7   4   5   4
 -0.1065655276543614E-01   7   4   5   5
 -0.8257170422763546E-02   7   4   6   1
 -0.4397062078562526E-02   7   4   6   2
 -0.4496303069635600E-02   7   4   6   3
 -0.8714868939830568E-02   7   4   6   4
 -0.1134396039344281E-02   7   4   6   5
 -0.1428757066920176E-01   7   4   6   6
 -0.1099940421817767E-01   7   4   7   1
 -0.6260838274819443E-02   7   4   7   2
  0.4994510501004404E-02   7   4   7   3
  0.1693059740572683E-01   7   4   7   4
 -0.8046111590763742E-02   7   5   1   1
  0.6239473642780282E-01   7   5   2   1
 -0.5326075583989107E-01   7   5   2   2
 -0.9681474365147118E-02   7   5   3   1
  0.3780353382170185E-02   7   5   3   2
  0.8247622934079867E-02   7   5   3   3
 -0.1539997931655641E-01   7   5   4   1
  0.4093674902466681E-02   7   5   4   2
  0.2239930837810086E-02   7   5   4   3
  0.1090896584961479E-01   7   5   4   4
 -0.1454305911364477E-01   7   5   5   1
  0.3563767369262337E-01   7   5   5   2
  0.1304823884737686E-01   7   5   5   3
 -0.7741677379308715E-02   7   5   5   4
 -0.2965045882420916E-01   7   5   5   5
  0.1285581007784306E-01   7   5   6   1
  0.1502957766393248E-01   7   5   6   2
 -0.5179470961836262E-02   7   5   6   3
  0.6949642015158813E-02   7   5   6   4
  0.2522853046454684E-01   7   5   6   5
 -0.1344761400027174E-01   7   5   6   6
  0.1358951983319641E-01   7   5   7   1
 -0.2614713650715560E-01   7   5   7   2
  0.2274841249211214E-02   7   5   7   3
  0.1765930351444553E-02   7   5   7   4
  0.4445739948871267E-01   7   5   7   5
  0.2613608817193585E-01   7   6   1   1
 -0.2813601585539486E-01   7   6   2   1
  0.3752343983219519E-01   7   6   2   2
 -0.9439083861384086E-02   7   6   3   1
 -0.1084188924053123E-01   7   6   3   2
 -0.4695957654023944E-02   7   6   3   3
 -0.1401670053381372E-01   7   6   4   1
 -0.1741269145350180E-01   7   6   4   2
 -0.2494401837664623E-02   7   6   4   3
 -0.2004031335289188E-01   7   6   4   4
  0.6704426732969855E-02   7   6   5   1
 -0.2279069955118017E-01   7   6   5   2
 -0.8253316083018779E-03   7   6   5   3
  0.1218937145625172E-01   7   6   5   4
  0.2305330179593666E-01   7   6   5   5
 -0.8573905559613380E-02   7   6   6   1
 -0.7142901911311519E-02   7   6   6   2
  0.6475775256383874E-02   7   6   6   3
 -0.1090682595583616E-02   7   6   6   4
 -0.2267008319337676E-01   7   6   6   5
 -0.1945946130866996E-02   7   6   6   6
 -0.1483903047519317E-01   7   6   7   1
  0.1199576613950733E-01   7   6   7   2
  0.5401471241260974E-02   7   6   7   3
  0.2746795427947459E-02   7   6   7   4
 -0.1188263156482369E-01   7   6   7   5
  0.1828562816399579E-01   7   6   7   6
  0.5912951592799055E+00   7   7   1   1
 -0.1268757397099545E-01   7   7   2   1
  0.5557615705476654E+00   7   7   2   2
 -0.6415706958601317E-01   7   7   3   1
 -0.4206538417753250E-01   7   7   3   2
  0.3354314531396073E+00   7   7   3   3
 -0.4081725929155287E-01   7   7   4   1
 -0.4050306785870431E-01   7   7   4   2
  0.7639729597283640E-01   7   7   4   3
  0.4270976353193215E+00   7   7   4   4
  0.1252407551563345E-01   7   7   5   1
 -0.9782479443945770E-01   7   7   5   2
  0.3290679540007274E-01   7   7   5   3
  0.1628058992696346E-01   7   7   5   4
  0.4872383460143382E+00   7   7   5   5
 -0.3229574064879112E-01   7   7   6   1
  0.3698034015202431E-01   7   7   6   2
  0.2176871715318057E-01   7   7   6   3
 -0.5018970814307078E-02   7   7   6   4
 -0.1770782777525404E-02   7   7   6   5
  0.4373524803021913E+00   7   7   6   6
 -0.4559011034884475E-01   7   7   7   1
  0.2559231367296189E-01   7   7   7   2
  0.5373758784811766E-01   7   7   7   3
 -0.1619481193554717E-01   7   7   7   4
 -0.6702513452254033E-02   7   7   7   5
  0.1775064970123108E-01   7   7   7   6
  0.5288867415039001E+00   7   7   7   7
  0.3349212244727157E-01   8   1   1   1
 -0.1115506070729664E-01   8   1   2   1
  0.2424767433804429E-01   8   1   2   2
 -0.1983314552721110E-01   8   1   3   1
 -0.1170603960184268E-01   8   1   3   2
  0.7109585200092671E-02   8   1   3   3
 -0.3290516096799982E-01   8   1   4   1
 -0.2022758912335921E-01   8   1   4   2
  0.1077005225893087E-01   8   1   4   3
 -0.1798485811713102E-02   8   1   4   4
 -0.2904934502051971E-03   8   1   5   1
 -0.2619307180095130E-01   8   1   5   2
  0.7084674492271963E-02   8   1   5   3
  0.2054225880359064E-01   8   1   5   4
  0.1525407502381911E-01   8   1   5   5
 -0.1236363428869055E-01   8   1   6   1
 -0.4509986483689225E-02   8   1   6   2
  0.4588959518218180E-02   8   1   6   3
  0.3746991881455712E-02   8   1   6   4
 -0.1817750882286471E-01   8   1   6   5
 -0.9337584498811648E-02   8   1   6   6
 -0.1564112721395947E-01   8   1   7   1
 -0.3970536181586767E-03   8   1   7   2
  0.8590442257900503E-02   8   1   7   3
  0.1009136223174704E-01   8   1   7   4
  0.1912755278270901E-02   8   1   7   5
  0.1232429256228911E-01   8   1   7   6
  0.2527382603301982E-01   8   1   7   7
  0.4964818820710136E-01   8   1   8   1
  0.1311592339784637E-01   8   2   1   1
 -0.1729635567217729E-01   8   2   2   1
  0.2416968489207116E-01   8   2   2   2
 -0.7185190287111797E-02   8   2   3   1
 -0.7548905923532322E-02   8   2   3   2
  0.4879879251770299E-02   8   2   3   3
 -0.9950498446922713E-02   8   2   4   1
 -0.1494983418288893E-01   8   2   4   2
  0.8515962573933864E-02   8   2   4   3
  0.2445855326186774E-02   8   2   4   4
 -0.1681592935044174E-02   8   2   5   1
 -0.3005959613256198E-01   8   2   5   2
  0.4516119808634415E-02   8   2   5   3
  0.1709832251253618E-01   8   2   5   4
  0.1684312207433791E-01   8   2   5   5
 -0.1270644679651100E-01   8   2   6   1
 -0.5581233616344546E-02   8   2   6   2
  0.1185771147595268E-02   8   2   6   3
 -0.2007736720076263E-02   8   2   6   4
 -0.1316228189828942E-01   8   2   6   5
 -0.5819058441412328E-02   8   2   6   6
 -0.1959897218116998E-01   8   2   7   1
  0.9432723059114273E-02   8   2   7   2
  0.4063084647413933E-02   8   2   7   3
  0.8982693503277713E-02   8   2   7   4
 -0.1166876452656336E-01   8   2   7   5
  0.7311896235975748E-02   8   2   7   6
  0.7804161766907994E-02   8   2   7   7
  0.2220575225271357E-01   8   2   8   1
  0.2821391694970702E-01   8   2   8   2
 -0.5369611461679552E-01   8   3   1   1
  0.5063448560879752E-02   8   3   2   1
 -0.4319578150200215E-01   8   3   2   2
  0.2201271590086549E-01   8   3   3   1
  0.1782965833498484E-01   8   3   3   2
 -0.1043576000464250E-03   8   3   3   3
  0.2559690424020718E-01   8   3   4   1
  0.2379791496942131E-01   8   3   4   2
 -0.4286067222259344E-02   8   3   4   3
  0.4438704850380471E-02   8   3   4   4
  0.3468557889149476E-02   8   3   5   1
  0.2737382415422046E-01   8   3   5   2
 -0.5557449833824876E-02   8   3   5   3
 -0.1180334777074602E-01   8   3   5   4
 -0.3191591974822464E-01   8   3   5   5
  0.1058588286912381E-01   8   3   6   1
 -0.1237934672286983E-02   8   3   6   2
 -0.4141677680608951E-02   8   3   6   3
  0.1147807173801262E-02   8   3   6   4
  0.1337913995772772E-01   8   3   6   5
 -0.5581957750039636E-02   8   3   6   6
  0.1771244002341005E-01   8   3   7   1
 -0.3916158225015814E-02   8   3   7   2
 -0.1320737578448181E-01   8   3   7   3
 -0.6857467263281392E-02   8   3   7   4
 -0.9592804615651956E-03   8   3   7   5
 -0.1090772427748406E-01   8   3   7   6
 -0.3418224968853809E-01   8   3   7   7
 -0.1709609594458742E-01   8   3   8   1
 -0.6131578331641428E-02   8   3   8   2
  0.2604941609636862E-01   8   3   8   3
 -0.1322357843633384E+00   8   4   1   1
  0.3219989692925904E-02   8   4   2   1
 -0.1065831137865664E+00   8   4   2   2
  0.3963460805366984E-01   8   4   3   1
  0.3115936628544447E-01   8   4   3   2
 -0.1426347278817147E-01   8   4   3   3
  0.3235238035756621E-01   8   4   4   1
  0.3211510119764575E-01   8   4   4   2
 -0.1815494434146707E-01   8   4   4   3
 -0.2966484924560527E-01   8   4   4   4
  0.1062150364450965E-01   8   4   5   1
  0.5193688778247261E-01   8   4   5   2
 -0.9417451051145763E-02   8   4   5   3
 -0.1317411688813359E-01   8   4   5   4
 -0.8021774095304350E-01   8   4   5   5
  0.2014113028004054E-01   8   4   6   1
 -0.7244108113647334E-02   8   4   6   2
 -0.9006337977119486E-02   8   4   6   3
  0.4008453915527972E-02   8   4   6   4
  0.1568480672543661E-01   8   4   6   5
 -0.4467608319381790E-01   8   4   6   6
  0.3336618778732531E-01   8   4   7   1
 -0.4452723401946287E-02   8   4   7   2
 -0.2505870767809401E-01   8   4   7   3
 -0.5726384422502701E-02   8   4   7   4
  0.5508550359555053E-03   8   4   7   5
 -0.1408343348207315E-01   8   4   7   6
 -0.8729765338596265E-01   8   4   7   7
 -0.1280786139398529E-01   8   4   8   1
 -0.1706629271911939E-02   8   4   8   2
  0.3869756754077427E-01   8   4   8   3
  0.7601837462405389E-01   8   4   8   4
 -0.4766024159089791E-01   8   5   1   1
 -0.2108428561469234E-02   8   5   2   1
 -0.5385298654564737E-01   8   5   2   2
  0.1902686973049464E-01   8   5   3   1
  0.1515086032554641E-01   8   5   3   2
 -0.1049350430763929E-01   8   5   3   3
  0.2541534021607560E-01   8   5   4   1
  0.2627196452288357E-01   8   5   4   2
 -0.9083267885386121E-02   8   5   4   3
 -0.6281087386393346E-02   8   5   4   4
 -0.5869067647344160E-02   8   5   5   1
  0.2718296442855258E-01   8   5   5   2
 -0.1292518310441261E-01   8   5   5   3
 -0.1838311757427630E-01   8   5   5   4
 -0.4226097902806079E-01   8   5   5   5
 -0.1203575983938530E-02   8   5   6   1
 -0.1128557981965397E-01   8   5   6   2
 -0.2630522186242653E-02   8   5   6   3
 -0.1089577377153856E-02   8   5   6   4
  0.7556665104142990E-02   8   5   6   5
 -0.1327419892442054E-01   8   5   6   6
  0.2377004815303235E-01   8   5   7   1
 -0.9181126741411888E-02   8   5   7   2
 -0.1056425428522852E-01   8   5   7   3
 -0.6391749472879731E-02   8   5   7   4
 -0.1099293560678494E-02   8   5   7   5
 -0.1166429496479098E-01   8   5   7   6
 -0.3068321977087173E-01   8   5   7   7
 -0.1840297053798794E-01   8   5   8   1
 -0.1322182305413096E-01   8   5   8   2
  0.1718489514625134E-01   8   5   8   3
  0.1925289453723012E-01   8   5   8   4
  0.2989355012503066E-01   8   5   8   5
 -0.2288110877936238E-01   8   6   1   1
 -0.1763468494673498E-01   8   6   2   1
 -0.1530208062952666E-01   8   6   2   2
  0.8869443014512495E-02   8   6   3   1
  0.3422944246046701E-02   8   6   3   2
 -0.7371959750886245E-02   8   6   3   3
  0.1041954937115587E-01   8   6   4   1
  0.4239136196351413E-02   8   6   4   2
 -0.6132876899801302E-02   8   6   4   3
 -0.1313499142059911E-01   8   6   4   4
 -0.4650782166106485E-02   8   6   5   1
 -0.1285739918396319E-02   8   6   5   2
 -0.5036201908711556E-02   8   6   5   3
 -0.5857419788471655E-03   8   6   5   4
 -0.1069082200832064E-01   8   6   5   5
 -0.9199681388538480E-02   8   6   6   1
 -0.1340621082954284E-01   8   6   6   2
  0.1942970921836841E-02   8   6   6   3
 -0.2251387713686690E-02   8   6   6   4
 -0.6311707778604235E-02   8   6   6   5
 -0.1172808205470286E-01   8   6   6   6
  0.5135214966103481E-02   8   6   7   1
  0.1361981004144468E-02   8   6   7   2
 -0.3309637645575597E-02   8   6   7   3
  0.8310751811860563E-03   8   6   7   4
 -0.1042501075949607E-01   8   6   7   5
 -0.1221008165870393E-03   8   6   7   6
 -0.1220136244809023E-01   8   6   7   7
 -0.3458799832684952E-02   8   6   8   1
  0.7425438673135179E-02   8   6   8   2
  0.3963923952929082E-02   8   6   8   3
  0.4944643610907452E-02   8   6   8   4
  0.1126659872290531E-01   8   6   8   5
  0.1916582605517294E-01   8   6   8   6
 -0.2233978192138894E-01   8   7   1   1
 -0.1798985984564138E-01   8   7   2   1
 -0.6495427514071259E-02   8   7   2   2
  0.1057655139818274E-01   8   7   3   1
  0.3691260249040734E-02   8   7   3   2
 -0.1234899767046464E-01   8   7   3   3
  0.1167846741914210E-01   8   7   4   1
  0.7899210379996852E-02   8   7   4   2
 -0.9128011739319533E-02   8   7   4   3
 -0.1475015880276229E-01   8   7   4   4
  0.8000083456752866E-02   8   7   5   1
  0.3002896500898833E-02   8   7   5   2
 -0.9237360409060084E-02   8   7   5   3
 -0.6145446214888816E-02   8   7   5   4
 -0.1176484676558338E-01   8   7   5   5
  0.3251518772399797E-02   8   7   6   1
 -0.8568224149623637E-02   8   7   6   2
 -0.2184225068306567E-04   8   7   6   3
 -0.9886944947843810E-04   8   7   6   4
 -0.8953400635638577E-02   8   7   6   5
 -0.8388092245982644E-02   8   7   6   6
  0.1266347685244194E-01   8   7   7   1
  0.4507114173792584E-02   8   7   7   2
 -0.6419317062550099E-02   8   7   7   3
 -0.1059618676804861E-01   8   7   7   4
 -0.7243576629725264E-02   8   7   7   5
  0.4714416534860877E-03   8   7   7   6
 -0.4360548422715753E-02   8   7   7   7
 -0.8961626307659162E-02   8   7   8   1
 -0.8525838817384224E-02   8   7   8   2
  0.5924037142409808E-02   8   7   8   3
  0.5805986363486642E-02   8   7   8   4
  0.8634938946527096E-02   8   7   8   5
 -0.1038304519309103E-03   8   7   8   6
  0.1636769851875576E-01   8   7   8   7
  0.6079383327528829E+00   8   8   1   1
  0.5257671044786799E-01   8   8   2   1
  0.5382533125053284E+00   8   8   2   2
 -0.6825357594544104E-01   8   8   3   1
 -0.2891172900173966E-01   8   8   3   2
  0.3693338848438265E+00   8   8   3   3
 -0.2246351785365674E-01   8   8   4   1
 -0.1348474725342308E-01   8   8   4   2
  0.1089046303155665E+00   8   8   4   3
  0.5187494998019624E+00   8   8   4   4
 -0.8762947088150647E-02   8   8   5   1
 -0.8484447340135631E-01   8   8   5   2
  0.4919776565822973E-01   8   8   5   3
  0.8954552504324864E-02   8   8   5   4
  0.4838361480085055E+00   8   8   5   5
 -0.2400901072787576E-01   8   8   6   1
  0.6825735687412876E-01   8   8   6   2
  0.1576976169883382E-01   8   8   6   3
 -0.8890691732906797E-03   8   8   6   4
  0.4618875312085347E-01   8   8   6   5
  0.4726832723419275E+00   8   8   6   6
 -0.6715230153000462E-01   8   8   7   1
  0.1262189443947404E-02   8   8   7   2
  0.4876241175899887E-01   8   8   7   3
 -0.7035023542890873E-02   8   8   7   4
  0.7912953346655982E-02   8   8   7   5
 -0.3899424706860222E-02   8   8   7   6
  0.4954051351573502E+00   8   8   7   7
  0.1506619246543145E-01   8   8   8   1
  0.8382779329424106E-02   8   8   8   2
 -0.1119499805341972E-01   8   8   8   3
 -0.6279208348018106E-01   8   8   8   4
 -0.2113691401642681E-01   8   8   8   5
 -0.1731068213886211E-01   8   8   8   6
 -0.2123789979672974E-01   8   8   8   7
  0.5878554023248596E+00   8   8   8   8
  0.1915970346897181E-02   9   1   1   1
  0.1934241886609009E-01   9   1   2   1
  0.2956791106215685E-01   9   1   2   2
 -0.5508278075616286E-02   9   1   3   1
 -0.1308283626595347E-01   9   1   3   2
  0.5998103642637944E-02   9   1   3   3
 -0.1193675419115178E-01   9   1   4   1
 -0.1714434510620473E-01   9   1   4   2
  0.7032868034549168E-02   9   1   4   3
  0.7236132553038153E-02   9   1   4   4
  0.1017704506909111E-02   9   1   5   1
 -0.5697373757369903E-02   9   1   5   2
  0.5613960379464812E-02   9   1   5   3
  0.7762008816559914E-02   9   1   5   4
  0.1358638393481427E-01   9   1   5   5
  0.2493790116894699E-01   9   1   6   1
  0.5730931828733094E-03   9   1   6   2
 -0.5798015062744682E-02   9   1   6   3
 -0.3949377578276201E-02   9   1   6   4
 -0.8519972385830805E-03   9   1   6   5
  0.4082253553547965E-02   9   1   6   6
 -0.7206333988267204E-02   9   1   7   1
  0.9241098884022608E-03   9   1   7   2
  0.2260172369487515E-02   9   1   7   3
  0.3691666701657906E-02   9   1   7   4
  0.5137279169040207E-02   9   1   7   5
 -0.3475315952099381E-02   9   1   7   6
 -0.2222355753202344E-02   9   1   7   7
  0.1926265174288580E-02   9   1   8   1
  0.5119296379469257E-02   9   1   8   2
 -0.2730810897460283E-02   9   1   8   3
  0.7681433773280618E-03   9   1   8   4
 -0.1695778483168267E-01   9   1   8   5
 -0.9622230755129533E-02   9   1   8   6
 -0.3861063945723183E-02   9   1   8   7
  0.2765118664794614E-03   9   1   8   8
  0.5765795339366232E-01   9   1   9   1
  0.3344311065681844E-01   9   2   1   1
  0.7768810471673487E-01   9   2   2   1
 -0.4696350847836695E-01   9   2   2   2
 -0.2648513976816643E-01   9   2   3   1
 -0.3981197457484514E-02   9   2   3   2
  0.1744532686733167E-01   9   2   3   3
 -0.2830380908346199E-01   9   2   4   1
 -0.2071692984058977E-02   9   2   4   2
  0.1578379656962126E-01   9   2   4   3
  0.3008918073710768E-01   9   2   4   4
 -0.2607654057495660E-01   9   2   5   1
  0.2258633937923240E-01   9   2   5   2
  0.1213917081592249E-01   9   2   5   3
 -0.5319978423803902E-02   9   2   5   4
 -0.1942828457267553E-01   9   2   5   5
 -0.2700116085246273E-02   9   2   6   1
  0.3202453548608869E-01   9   2   6   2
 -0.1085778746101877E-01   9   2   6   3
 -0.5768564034994220E-02   9   2   6   4
  0.2823420096146003E-01   9   2   6   5
 -0.2970615902121855E-02   9   2   6   6
  0.1651470018145184E-02   9   2   7   1
 -0.3494005356569883E-01   9   2   7   2
  0.1212367269884699E-01   9   2   7   3