 &FCI NORB= 24,NELEC= 10,MS2= 0,
  ORBSYM=1,1,1,1,1,1,1,1,1,1,1,2,2,2,2,3,3,3,3,3,3,3,4,4,
  ISYM=1,
  OCC=  3,  1,  1,  0,  0,  0,  0,  0,
  CLOSED=  3,  1,  1,  0,  0,  0,  0,  0,
  -76.021457963247
 /
  0.4740185639915056E+01   1   1   1   1
 -0.4326958236662098E+00   2   1   1   1
  0.6413780350573002E-01   2   1   2   1
  0.1045381863784545E+01   2   2   1   1
 -0.1460749047955947E-01   2   2   2   1
  0.7477155410775898E+00   2   2   2   2
  0.1376776917429330E+00   3   1   1   1
 -0.1715257073607499E-01   3   1   2   1
  0.1353670284459055E-01   3   1   2   2
  0.2922880296441056E-01   3   1   3   1
 -0.9779388665027423E-01   3   2   1   1
  0.7546688164282744E-02   3   2   2   1
  0.9244271983448385E-02   3   2   2   2
  0.2255938478852848E-01   3   2   3   1
  0.1273555634271190E+00   3   2   3   2
  0.9697064020044979E+00   3   3   1   1
 -0.1209442173822832E-01   3   3   2   1
  0.6752634641122616E+00   3   3   2   2
 -0.8984562291015094E-02   3   3   3   1
 -0.7056848332254068E-01   3   3   3   2
  0.7130226185174112E+00   3   3   3   3
  0.1453657858311147E+00   4   1   1   1
 -0.2295944775980214E-01   4   1   2   1
  0.1870604355518366E-02   4   1   2   2
 -0.1485265083169978E-02   4   1   3   1
 -0.1001367805185925E-01   4   1   3   2
  0.7503373627489460E-02   4   1   3   3
  0.1059114907223778E-01   4   1   4   1
 -0.2105624010073314E+00   4   2   1   1
  0.4600386250682671E-02   4   2   2   1
 -0.1097583945469520E+00   4   2   2   2
 -0.1022137720079100E-01   4   2   3   1
 -0.1886262328451042E-01   4   2   3   2
 -0.7491625235855714E-01   4   2   3   3
  0.1226497284026866E-02   4   2   4   1
  0.3852978312508922E-01   4   2   4   2
 -0.1260438040936156E+00   4   3   1   1
  0.9518451574354568E-03   4   3   2   1
 -0.6782983919329715E-01   4   3   2   2
 -0.3589498404910196E-02   4   3   3   1
  0.6696248965351851E-02   4   3   3   2
 -0.6640459112088060E-01   4   3   3   3
  0.8007522772053820E-03   4   3   4   1
  0.2265742977900387E-01   4   3   4   2
  0.2414233402758052E-01   4   3   4   3
  0.4207373309987154E+00   4   4   1   1
 -0.2132122849978145E-02   4   4   2   1
  0.3720472759378890E+00   4   4   2   2
  0.6944509052075197E-02   4   4   3   1
  0.3037581733697255E-01   4   4   3   2
  0.3457338283051302E+00   4   4   3   3
 -0.1251039721930901E-02   4   4   4   1
 -0.2192100583714371E-01   4   4   4   2
 -0.3968940451634262E-02   4   4   4   3
  0.3044159666187504E+00   4   4   4   4
 -0.1241222462765948E+00   5   1   1   1
  0.2025558337607079E-01   5   1   2   1
  0.3681835175524042E-03   5   1   2   2
  0.6999026775317793E-02   5   1   3   1
  0.1403668572243449E-01   5   1   3   2
 -0.9305004809589037E-02   5   1   3   3
 -0.1109811076898501E-01   5   1   4   1
 -0.3057612296087601E-02   5   1   4   2
 -0.1438096615324498E-02   5   1   4   3
  0.2448884656853592E-02   5   1   4   4
  0.1268607132740617E-01   5   1   5   1
  0.1631476334803592E+00   5   2   1   1
 -0.3784655823869150E-02   5   2   2   1
  0.6724696204934962E-01   5   2   2   2
  0.1158415121639932E-01   5   2   3   1
  0.1491123110509082E-01   5   2   3   2
  0.3991549435461212E-01   5   2   3   3
 -0.2022329019709375E-02   5   2   4   1
 -0.3489188425248545E-01   5   2   4   2
 -0.2244671957648517E-01   5   2   4   3
  0.1077915064826603E-01   5   2   4   4
  0.4255488761912798E-02   5   2   5   1
  0.4944926338613594E-01   5   2   5   2
  0.1668479528381109E+00   5   3   1   1
 -0.3093112665296870E-02   5   3   2   1
  0.6418039518181856E-01   5   3   2   2
  0.2784837326366165E-02   5   3   3   1
 -0.1291118306933744E-01   5   3   3   2
  0.6835894412084702E-01   5   3   3   3
  0.3100986877979332E-03   5   3   4   1
 -0.2646830112844266E-01   5   3   4   2
 -0.2347795110869125E-01   5   3   4   3
  0.6446166837874746E-02   5   3   4   4
  0.1790755569213796E-03   5   3   5   1
  0.3641283548257260E-01   5   3   5   2
  0.4013260542662840E-01   5   3   5   3
 -0.1781144740675125E+00   5   4   1   1
  0.2494393718860006E-02   5   4   2   1
 -0.1158996299958377E+00   5   4   2   2
 -0.6824441540680913E-02   5   4   3   1
 -0.1987718419572227E-01   5   4   3   2
 -0.9298569862544956E-01   5   4   3   3
  0.1083928929128605E-02   5   4   4   1
  0.2407424991632982E-01   5   4   4   2
  0.1312202905604644E-01   5   4   4   3
 -0.3933591644315684E-01   5   4   4   4
 -0.2281924292804046E-02   5   4   5   1
 -0.8393973277486755E-02   5   4   5   2
 -0.4163442709810519E-02   5   4   5   3
  0.4104598158159256E-01   5   4   5   4
  0.5691372045784618E+00   5   5   1   1
 -0.2624501358916132E-02   5   5   2   1
  0.5058927389803891E+00   5   5   2   2
  0.1078388191453035E-01   5   5   3   1
  0.6247432964686989E-01   5   5   3   2
  0.4526322529602954E+00   5   5   3   3
 -0.2239189668950160E-02   5   5   4   1
 -0.3843516380761441E-01   5   5   4   2
 -0.9269238037256877E-02   5   5   4   3
  0.3485138491225491E+00   5   5   4   4
  0.4019114103091234E-02   5   5   5   1
 -0.1125449167976237E-01   5   5   5   2
 -0.1711936885075088E-01   5   5   5   3
 -0.9563500666759239E-01   5   5   5   4
  0.5143535685587595E+00   5   5   5   5
 -0.9213760244711507E-01   6   1   1   1
  0.1007453151286204E-01   6   1   2   1
 -0.1219622215311039E-01   6   1   2   2
 -0.3090092571939591E-01   6   1   3   1
 -0.2426612558071469E-01   6   1   3   2
  0.1132477612675689E-01   6   1   3   3
  0.5127770538629653E-02   6   1   4   1
  0.1008662062715343E-01   6   1   4   2
  0.3601508361117178E-02   6   1   4   3
 -0.6895080548664837E-02   6   1   4   4
 -0.1104749036572537E-01   6   1   5   1
 -0.1161760095107730E-01   6   1   5   2
 -0.2406525394246484E-02   6   1   5   3
  0.6758251697579263E-02   6   1   5   4
 -0.1070530426025211E-01   6   1   5   5
  0.3400631882914713E-01   6   1   6   1
  0.3417528849696843E-01   6   2   1   1
 -0.4141254946623791E-02   6   2   2   1
 -0.1861868800611890E-02   6   2   2   2
 -0.1267477910945381E-01   6   2   3   1
 -0.2939798077052045E-01   6   2   3   2
  0.3043213025755768E-01   6   2   3   3
  0.5634033010391835E-02   6   2   4   1
  0.8685571482655710E-02   6   2   4   2
  0.7891037075828562E-02   6   2   4   3
 -0.3605041223425818E-03   6   2   4   4
 -0.7863899582590820E-02   6   2   5   1
 -0.4302300249911547E-02   6   2   5   2
  0.3827381382894124E-02   6   2   5   3
  0.8616277099316162E-02   6   2   5   4
 -0.1217913478241098E-01   6   2   5   5
  0.1410513234163078E-01   6   2   6   1
  0.3491499701053348E-01   6   2   6   2
 -0.4013697492428422E+00   6   3   1   1
  0.1233529201017971E-01   6   3   2   1
 -0.1445805292490476E+00   6   3   2   2
  0.5666219824170638E-02   6   3   3   1
  0.4753448283556778E-01   6   3   3   2
 -0.1574528946840798E+00   6   3   3   3
 -0.6707012786082503E-02   6   3   4   1
  0.3653771159443748E-01   6   3   4   2
  0.2800699714588818E-01   6   3   4   3
 -0.2144916848720875E-01   6   3   4   4
  0.7896174354102871E-02   6   3   5   1
 -0.2117973531624289E-01   6   3   5   2
 -0.3749823095737126E-01   6   3   5   3
  0.3030522184435859E-01   6   3   5   4
 -0.5119915173932731E-01   6   3   5   5
 -0.7843619777425152E-02   6   3   6   1
 -0.1271143515869432E-01   6   3   6   2
  0.1136369155258572E+00   6   3   6   3
  0.1015862274408908E+00   6   4   1   1
 -0.1647204870293639E-02   6   4   2   1
  0.5120557735756019E-01   6   4   2   2
  0.5909620269383180E-02   6   4   3   1
  0.2707916258695326E-01   6   4   3   2
  0.3454071837105500E-01   6   4   3   3
 -0.1171292375332996E-02   6   4   4   1
 -0.1579217678639273E-01   6   4   4   2
 -0.3090341309828215E-03   6   4   4   3
  0.2686876432044214E-01   6   4   4   4
  0.2178672878759967E-02   6   4   5   1
  0.1423323427745811E-01   6   4   5   2
  0.1030868384882457E-01   6   4   5   3
 -0.1171624229217131E-01   6   4   5   4
  0.3705098881071883E-01   6   4   5   5
 -0.5855569512232774E-02   6   4   6   1
  0.4558511346160644E-02   6   4   6   2
 -0.1431913317440393E-01   6   4   6   3
  0.2556449636458455E-01   6   4   6   4
 -0.1369925569118815E+00   6   5   1   1
  0.4365294783789732E-02   6   5   2   1
 -0.3107806506503245E-01   6   5   2   2
 -0.2546450098180272E-02   6   5   3   1
  0.1258713504395542E-01   6   5   3   2
 -0.4089285137897369E-01   6   5   3   3
 -0.9454755580369134E-03   6   5   4   1
  0.1529976056262532E-01   6   5   4   2
  0.1431057994665274E-01   6   5   4   3
 -0.1234642391159748E-02   6   5   4   4
  0.5196079423314499E-03   6   5   5   1
 -0.2114489671731185E-01   6   5   5   2
 -0.2185656027250002E-01   6   5   5   3
  0.5690032725823330E-02   6   5   5   4
  0.1167230020942083E-01   6   5   5   5
  0.2066930451494222E-02   6   5   6   1
 -0.2808653728623485E-02   6   5   6   2
  0.2811667756569714E-01   6   5   6   3
 -0.7098426371583619E-02   6   5   6   4
  0.2391174544747344E-01   6   5   6   5
  0.8333013723094284E+00   6   6   1   1
 -0.1318523781362399E-01   6   6   2   1
  0.5715977123205429E+00   6   6   2   2
 -0.2695127753208812E-02   6   6   3   1
 -0.3064025811252251E-01   6   6   3   2
  0.5842983297594437E+00   6   6   3   3
  0.6124236351329158E-02   6   6   4   1
 -0.5445410632767139E-01   6   6   4   2
 -0.4553989643504905E-01   6   6   4   3
  0.3315881795895404E+00   6   6   4   4
 -0.6879481575121697E-02   6   6   5   1
  0.2904231338762593E-01   6   6   5   2
  0.4527019633270998E-01   6   6   5   3
 -0.7454647279741966E-01   6   6   5   4
  0.4193879134773692E+00   6   6   5   5
  0.4912875938751338E-02   6   6   6   1
  0.1755937848033318E-01   6   6   6   2
 -0.1012445507926434E+00   6   6   6   3
  0.3032986272407748E-01   6   6   6   4
 -0.2567980925790692E-01   6   6   6   5
  0.5206585856587285E+00   6   6   6   6
  0.1617773661426494E+00   7   1   1   1
 -0.2325766117422607E-01   7   1   2   1
  0.7141216249493440E-02   7   1   2   2
  0.1301019854959569E-01   7   1   3   1
  0.3461014161202147E-02   7   1   3   2
  0.1937993280654445E-02   7   1   3   3
  0.6213570231838080E-02   7   1   4   1
 -0.3744889738149951E-02   7   1   4   2
 -0.1419730191595192E-02   7   1   4   3
  0.2330158936472153E-02   7   1   4   4
 -0.3916169200800717E-02   7   1   5   1
  0.3979448442696969E-02   7   1   5   2
  0.1916768995557988E-02   7   1   5   3
 -0.2452018149934597E-02   7   1   5   4
  0.3409436132254354E-02   7   1   5   5
 -0.1144868012442115E-01   7   1   6   1
 -0.1919027760398922E-02   7   1   6   2
 -0.2459225330909704E-02   7   1   6   3
  0.2058500042469031E-02   7   1   6   4
 -0.2169259849348270E-02   7   1   6   5
  0.3547134838889484E-02   7   1   6   6
  0.1040193365798257E-01   7   1   7   1
 -0.1497901293170742E+00   7   2   1   1
  0.6110598344942848E-02   7   2   2   1
 -0.4647215641123813E-01   7   2   2   2
  0.5350743833559201E-03   7   2   3   1
  0.2389940176814016E-01   7   2   3   2
 -0.2528236411864707E-01   7   2   3   3
 -0.2717273317293426E-02   7   2   4   1
  0.1253196463203317E-01   7   2   4   2
  0.4771421014857968E-02   7   2   4   3
 -0.4130144542171020E-02   7   2   4   4
  0.2916576297266930E-02   7   2   5   1
 -0.5624169125036357E-02   7   2   5   2
 -0.7864206497303732E-02   7   2   5   3
  0.8086435635383202E-02   7   2   5   4
 -0.1054522082102371E-01   7   2   5   5
 -0.1166941098003538E-02   7   2   6   1
  0.4043261447903281E-02   7   2   6   2
  0.3929851901911058E-01   7   2   6   3
  0.1137069182686784E-02   7   2   6   4
  0.2247050105288527E-02   7   2   6   5
 -0.1897175934927411E-01   7   2   6   6
 -0.1058326672862401E-02   7   2   7   1
  0.3756509174407742E-01   7   2   7   2
  0.1139854474430177E+00   7   3   1   1
 -0.3565726048843329E-02   7   3   2   1
  0.6318782701739876E-01   7   3   2   2
  0.3141624197739723E-02   7   3   3   1
  0.4693406339709656E-01   7   3   3   2
  0.3074366539504197E-01   7   3   3   3
  0.5524470495196529E-03   7   3   4   1
 -0.1785863656401671E-01   7   3   4   2
  0.5183722320606085E-02   7   3   4   3
  0.3037311285087655E-01   7   3   4   4
 -0.1126877105149015E-03   7   3   5   1
  0.8772450655728509E-02   7   3   5   2
  0.1800554481379824E-02   7   3   5   3
 -0.1831475498306931E-01   7   3   5   4
  0.5781912354510298E-01   7   3   5   5
 -0.2379419306252419E-02   7   3   6   1
  0.1276174632087940E-01   7   3   6   2
 -0.1455130675100572E-01   7   3   6   3
  0.2816631142921467E-01   7   3   6   4
 -0.2220461596668263E-02   7   3   6   5
  0.3132079437634361E-01   7   3   6   6
  0.1667806681688002E-02   7   3   7   1
  0.3142131106202973E-02   7   3   7   2
  0.5823682501443345E-01   7   3   7   3
  0.5559827599311108E-01   7   4   1   1
 -0.1476680619570547E-02   7   4   2   1
  0.2999585553380758E-01   7   4   2   2
 -0.3781258946755457E-03   7   4   3   1
 -0.1285648877646030E-01   7   4   3   2
  0.3752245335064956E-01   7   4   3   3
  0.7253598792625830E-03   7   4   4   1
 -0.4552765936828649E-02   7   4   4   2
 -0.6193217400385658E-02   7   4   4   3
  0.2588476974965682E-02   7   4   4   4
 -0.7892639575445034E-03   7   4   5   1
  0.4221928847403968E-02   7   4   5   2
  0.3974891944062604E-02   7   4   5   3
 -0.3410658987648585E-02   7   4   5   4
  0.5195460961237344E-02   7   4   5   5
  0.4703926306978467E-03   7   4   6   1
  0.3013536259617406E-02   7   4   6   2
 -0.2680957810677880E-02   7   4   6   3
  0.1174369901082362E-02   7   4   6   4
 -0.7972097235807767E-02   7   4   6   5
  0.3065804057144681E-01   7   4   6   6
  0.2454347655296051E-03   7   4   7   1
  0.3055568937946314E-02   7   4   7   2
 -0.2717024758727126E-02   7   4   7   3
  0.1428333310902881E-01   7   4   7   4
  0.3804991146837847E-02   7   5   1   1
  0.4837276128145083E-03   7   5   2   1
  0.6654870418973909E-02   7   5   2   2
 -0.1302617914565815E-02   7   5   3   1
 -0.8207253428715014E-02   7   5   3   2
  0.5569354581596212E-02   7   5   3   3
  0.1810432791685114E-03   7   5   4   1
  0.4666082319934893E-04   7   5   4   2
 -0.5392743445974862E-02   7   5   4   3
 -0.1429100659234587E-02   7   5   4   4
 -0.4711755360538566E-03   7   5   5   1
 -0.1951386425556381E-02   7   5   5   2
  0.3460402542214151E-02   7   5   5   3
 -0.3878859777704355E-02   7   5   5   4
  0.1893871466630546E-02   7   5   5   5
  0.1319067132911860E-02   7   5   6   1
 -0.8275484388187039E-02   7   5   6   2
 -0.7637226292297592E-02   7   5   6   3
 -0.1040785302393690E-01   7   5   6   4
  0.6813711105141699E-02   7   5   6   5
  0.7153135573706190E-02   7   5   6   6
 -0.4039495017925178E-03   7   5   7   1
 -0.1232862307948245E-01   7   5   7   2
 -0.1297452420126450E-01   7   5   7   3
 -0.8289785853090339E-02   7   5   7   4
  0.2388093994263896E-01   7   5   7   5
 -0.8108228820018709E-01   7   6   1   1
  0.4817269352298024E-02   7   6   2   1
  0.6492539135092957E-02   7   6   2   2
  0.6674461998871440E-02   7   6   3   1
  0.6245986669252459E-01   7   6   3   2
 -0.3307689934313392E-01   7   6   3   3
 -0.3987009043649728E-02   7   6   4   1
  0.9778739085632426E-03   7   6   4   2
  0.1997971248626837E-01   7   6   4   3
  0.2769871521359423E-01   7   6   4   4
  0.5145504269494819E-02   7   6   5   1
 -0.1063305935170329E-01   7   6   5   2
 -0.1869132124167015E-01   7   6   5   3
 -0.1210402611917948E-01   7   6   5   4
  0.5576559428082398E-01   7   6   5   5
 -0.7513785856521353E-02   7   6   6   1
 -0.1171033538088838E-02   7   6   6   2
  0.2324492162625404E-01   7   6   6   3
  0.2103498324763892E-01   7   6   6   4
  0.1732555552501406E-01   7   6   6   5
 -0.1476409697392429E-01   7   6   6   6
  0.1014528252232683E-03   7   6   7   1
  0.7759437179798239E-02   7   6   7   2
  0.4231385031702372E-01   7   6   7   3
 -0.1178129128493903E-01   7   6   7   4
 -0.4276638383239918E-02   7   6   7   5
  0.6566968567255943E-01   7   6   7   6
  0.5711159748346383E+00   7   7   1   1
 -0.2847950371822333E-02   7   7   2   1
  0.5113112270435832E+00   7   7   2   2
  0.1121547504721639E-02   7   7   3   1
  0.7195427677262410E-02   7   7   3   2
  0.5017792348185364E+00   7   7   3   3
  0.7996076490694535E-03   7   7   4   1
 -0.3321174455525777E-01   7   7   4   2
 -0.2405286186102426E-01   7   7   4   3
  0.3308561336272015E+00   7   7   4   4
 -0.7801393595932363E-03   7   7   5   1
  0.3609203037452380E-03   7   7   5   2
  0.6382367101977870E-02   7   7   5   3
 -0.7300585426539230E-01   7   7   5   4
  0.4361713608291564E+00   7   7   5   5
 -0.7524522734498643E-03   7   7   6   1
  0.2337941469815377E-02   7   7   6   2
 -0.3820386175297594E-01   7   7   6   3
  0.2032159824668847E-01   7   7   6   4
 -0.5917139983233621E-03   7   7   6   5
  0.4580300498521938E+00   7   7   6   6
  0.1028397739098512E-02   7   7   7   1
  0.1624436642526095E-03   7   7   7   2
  0.3101768512587808E-01   7   7   7   3
  0.2406365595271009E-01   7   7   7   4
  0.4198811893162513E-02   7   7   7   5
  0.1964287627597905E-01   7   7   7   6
  0.4659717574417092E+00   7   7   7   7
  0.3235619117103322E+00   8   1   1   1
 -0.4738760876004750E-01   8   1   2   1
  0.1118654685740753E-01   8   1   2   2
  0.1659373080117663E-01   8   1   3   1
 -0.1534128254524127E-02   8   1   3   2
  0.5409294019267559E-02   8   1   3   3
  0.1570585473535579E-01   8   1   4   1
 -0.4440754861533284E-02   8   1   4   2
 -0.8677624407365232E-03   8   1   4   3
  0.2309125453411489E-02   8   1   4   4
 -0.1299693027921600E-01   8   1   5   1
  0.4267624562729944E-02   8   1   5   2
  0.2015241223457138E-02   8   1   5   3
 -0.2517150314403679E-02   8   1   5   4
  0.3109073248953114E-02   8   1   5   5
 -0.1192298972658976E-01   8   1   6   1
  0.8551480098451029E-03   8   1   6   2
 -0.6513547363699932E-02   8   1   6   3
  0.1757793205915808E-02   8   1   6   4
 -0.2935549582377842E-02   8   1   6   5
  0.7613114807913580E-02   8   1   6   6
  0.1832966421355709E-01   8   1   7   1
 -0.4015294870808137E-02   8   1   7   2
  0.2712013979012587E-02   8   1   7   3
  0.9393337224421492E-03   8   1   7   4
 -0.6059051302219119E-03   8   1   7   5
 -0.2123468499634396E-02   8   1   7   6
  0.1827120901908197E-02   8   1   7   7
  0.3608539735181346E-01   8   1   8   1
 -0.3036065606654214E+00   8   2   1   1
  0.1163499651485109E-01   8   2   2   1
 -0.1032058543156269E+00   8   2   2   2
 -0.5125729950544082E-02   8   2   3   1
  0.4989536125118784E-02   8   2   3   2
 -0.9971267179959413E-01   8   2   3   3
 -0.3309802905050927E-02   8   2   4   1
  0.3252373677649353E-01   8   2   4   2
  0.2025102410299889E-01   8   2   4   3
 -0.2154736689932499E-01   8   2   4   4
  0.2600401495788633E-02   8   2   5   1
 -0.1984004531051489E-01   8   2   5   2
 -0.2543243832254484E-01   8   2   5   3
  0.2544604536279637E-01   8   2   5   4
 -0.4463017679430259E-01   8   2   5   5
  0.3912251509480527E-02   8   2   6   1
  0.1115227496738114E-02   8   2   6   2
  0.6286300414711785E-01   8   2   6   3
 -0.1795415006993727E-01   8   2   6   4
  0.2397289261642171E-01   8   2   6   5
 -0.6895100412527826E-01   8   2   6   6
 -0.4540748437207389E-02   8   2   7   1
  0.1574996399898146E-01   8   2   7   2
 -0.2048069525384630E-01   8   2   7   3
 -0.7264697662582670E-02   8   2   7   4
  0.3777901512466434E-02   8   2   7   5
  0.7604486591718258E-02   8   2   7   6
 -0.3730754869574698E-01   8   2   7   7
 -0.7755302237336878E-02   8   2   8   1
  0.6337393388753446E-01   8   2   8   2
  0.1183021962003748E+00   8   3   1   1
 -0.6647226018506051E-02   8   3   2   1
  0.2458770698960696E-01   8   3   2   2
 -0.1357431579989866E-01   8   3   3   1
 -0.4481316393261016E-01   8   3   3   2
  0.5891485224058710E-01   8   3   3   3
  0.6920154757638968E-02   8   3   4   1
  0.1807555104268274E-02   8   3   4   2
 -0.2003802558752495E-02   8   3   4   3
 -0.1361495317399060E-02   8   3   4   4
 -0.9460467767078306E-02   8   3   5   1
 -0.3475668665231694E-02   8   3   5   2
  0.1299966611686511E-01   8   3   5   3
  0.2289710349287630E-02   8   3   5   4
 -0.6709386765738096E-02   8   3   5   5
  0.1532959592662534E-01   8   3   6   1
  0.2765393553159979E-01   8   3   6   2
 -0.3812835654585205E-01   8   3   6   3
 -0.2508080907860991E-04   8   3   6   4
 -0.6507639156492542E-02   8   3   6   5
  0.3940207552005692E-01   8   3   6   6
 -0.1435433861244395E-02   8   3   7   1
 -0.1289205188064128E-01   8   3   7   2
  0.1961260500545233E-02   8   3   7   3
  0.2153244695218284E-02   8   3   7   4
  0.3322118148517406E-02   8   3   7   5
 -0.1421066564809993E-01   8   3   7   6
  0.8549640042360411E-02   8   3   7   7
  0.2043052346325153E-02   8   3   8   1
 -0.1413804266357539E-01   8   3   8   2
  0.3891769070422514E-01   8   3   8   3
  0.1383284511702643E+00   8   4   1   1
 -0.3176838546024324E-02   8   4   2   1
  0.7569913102463456E-01   8   4   2   2
  0.5928287594938651E-02   8   4   3   1
  0.4061292762710472E-02   8   4   3   2
  0.5980625910979499E-01   8   4   3   3
 -0.5015481786981931E-03   8   4   4   1
 -0.1924881869971632E-01   8   4   4   2
 -0.1498451189046919E-01   8   4   4   3
  0.1723982595687955E-01   8   4   4   4
  0.1520545121450253E-02   8   4   5   1
  0.1585192542838445E-01   8   4   5   2
  0.1366758712545591E-01   8   4   5   3
 -0.1687192611824730E-01   8   4   5   4
  0.3371744465680440E-01   8   4   5   5
 -0.5914199548290597E-02   8   4   6   1
 -0.8065678457005251E-02   8   4   6   2
 -0.2077235935088150E-01   8   4   6   3
  0.5622912376468295E-02   8   4   6   4
 -0.6415706202231655E-02   8   4   6   5
  0.4888523596973406E-01   8   4   6   6
  0.2324194952498424E-02   8   4   7   1
 -0.9203631555709815E-02   8   4   7   2
  0.3499432182466965E-02   8   4   7   3
  0.3180139595266925E-02   8   4   7   4
  0.5581618289714835E-02   8   4   7   5
 -0.4053683494446972E-02   8   4   7   6
  0.3661772457654713E-01   8   4   7   7
  0.2858475051446027E-02   8   4   8   1
 -0.1607492387707903E-01   8   4   8   2
 -0.9424446405059128E-03   8   4   8   3
  0.1764862173582138E-01   8   4   8   4
 -0.4460627135725719E-01   8   5   1   1
  0.2224384669946642E-02   8   5   2   1
  0.1209004161199327E-02   8   5   2   2
 -0.7411524471016220E-02   8   5   3   1
 -0.7123335193366257E-02   8   5   3   2
  0.1392732016589922E-01   8   5   3   3
  0.1333741498728940E-02   8   5   4   1
  0.9184892017315788E-02   8   5   4   2
  0.6302361011735307E-02   8   5   4   3
  0.1731395864398129E-02   8   5   4   4
 -0.2677071663855815E-02   8   5   5   1
 -0.1283584098891592E-01   8   5   5   2
 -0.1068099827895219E-01   8   5   5   3
  0.2058330531919027E-02   8   5   5   4
  0.1389846899819134E-01   8   5   5   5
  0.7657516907723248E-02   8   5   6   1
  0.1312785551809442E-01   8   5   6   2
  0.6053503381871456E-02   8   5   6   3
 -0.8559763223830539E-03   8   5   6   4
  0.6305031175502275E-02   8   5   6   5
  0.1065655890397883E-01   8   5   6   6
 -0.2452717382930435E-02   8   5   7   1
  0.8257170379388662E-02   8   5   7   2
  0.4397058317925315E-02   8   5   7   3
  0.4496305668068439E-02   8   5   7   4
 -0.8714868908815130E-02   8   5   7   5
  0.1134394828610290E-02   8   5   7   6
  0.1428757399434130E-01   8   5   7   7
 -0.2501296141562453E-02   8   5   8   1
  0.1099940319900244E-01   8   5   8   2
  0.6260841122694720E-02   8   5   8   3
 -0.4994508300425092E-02   8   5   8   4
  0.1693059527305956E-01   8   5   8   5
 -0.8567733773253161E-01   8   6   1   1
  0.5661450878577661E-02   8   6   2   1
 -0.8046110381005309E-02   8   6   2   2
  0.1484792268933372E-01   8   6   3   1
  0.6239473539234469E-01   8   6   3   2
 -0.5326077260276622E-01   8   6   3   3
 -0.6899953269096037E-02   8   6   4   1
 -0.9681453158520929E-02   8   6   4   2
  0.3780335295910861E-02   8   6   4   3
  0.8247624753667174E-02   8   6   4   4
  0.9654699092563591E-02   8   6   5   1
  0.1539996903439749E-01   8   6   5   2
 -0.4093673103193462E-02   8   6   5   3
 -0.2239931460211597E-02   8   6   5   4
  0.1090896170954766E-01   8   6   5   5
 -0.1640397707635597E-01   8   6   6   1
 -0.1454304100870806E-01   8   6   6   2
  0.3563766688506963E-01   8   6   6   3
  0.1304824791852749E-01   8   6   6   4
  0.7741678663772095E-02   8   6   6   5
 -0.2965044867220415E-01   8   6   6   6
  0.1981491977169130E-02   8   6   7   1
  0.1285580942720407E-01   8   6   7   2
  0.1502957431233827E-01   8   6   7   3
 -0.5179463544663091E-02   8   6   7   4
 -0.6949647158200076E-02   8   6   7   5
  0.2522853259475595E-01   8   6   7   6
 -0.1344761137329019E-01   8   6   7   7
 -0.1239357695387605E-02   8   6   8   1
  0.1358952075310632E-01   8   6   8   2
 -0.2614714173022421E-01   8   6   8   3
  0.2274833401499615E-02   8   6   8   4
 -0.1765928453633535E-02   8   6   8   5
  0.4445739367181625E-01   8   6   8   6
  0.1166854659116188E+00   8   7   1   1
 -0.5319420945512722E-02   8   7   2   1
  0.2613608944382463E-01   8   7   2   2
 -0.2154454284929509E-02   8   7   3   1
 -0.2813600532330946E-01   8   7   3   2
  0.3752345924903725E-01   8   7   3   3
  0.2862994999456447E-02   8   7   4   1
 -0.9439094295234353E-02   8   7   4   2
 -0.1084187718615855E-01   8   7   4   3
 -0.4695963602360355E-02   8   7   4   4
 -0.3306646253846702E-02   8   7   5   1
  0.1401670364163370E-01   8   7   5   2
  0.1741268774347785E-01   8   7   5   3
  0.2494408991196718E-02   8   7   5   4
 -0.2004031335590849E-01   8   7   5   5
  0.2867390293772811E-02   8   7   6   1
  0.6704422579132541E-02   8   7   6   2
 -0.2279069734671817E-01   8   7   6   3
 -0.8253376721583487E-03   8   7   6   4
 -0.1218936979091364E-01   8   7   6   5
  0.2305329482910257E-01   8   7   6   6
  0.8494958325158224E-03   8   7   7   1
 -0.8573905342631123E-02   8   7   7   2
 -0.7142898546124762E-02   8   7   7   3
  0.6475771369765411E-02   8   7   7   4
  0.1090685761937916E-02   8   7   7   5
 -0.2267008124112702E-01   8   7   7   6
 -0.1945947820321709E-02   8   7   7   7
  0.3093275371433883E-02   8   7   8   1
 -0.1483903075295866E-01   8   7   8   2
  0.1199576577695308E-01   8   7   8   3
  0.5401474902317620E-02   8   7   8   4
 -0.2746795514131432E-02   8   7   8   5
 -0.1188262947293111E-01   8   7   8   6
  0.1828562733143956E-01   8   7   8   7
  0.7863309056072069E+00   8   8   1   1
 -0.9609274251589974E-02   8   8   2   1
  0.5912951644963392E+00   8   8   2   2
  0.2996492965287271E-02   8   8   3   1
 -0.1268754318834821E-01   8   8   3   2
  0.5557616432986660E+00   8   8   3   3
  0.2978752668575644E-02   8   8   4   1
 -0.6415707711419119E-01   8   8   4   2
 -0.4206533664241940E-01   8   8   4   3
  0.3354314360299564E+00   8   8   4   4
 -0.2594454393621107E-02   8   8   5   1
  0.4081725528340499E-01   8   8   5   2
  0.4050308852433121E-01   8   8   5   3
 -0.7639728498068554E-01   8   8   5   4
  0.4270976212092893E+00   8   8   5   5
 -0.1751561270528591E-02   8   8   6   1
  0.1252408073400321E-01   8   8   6   2
 -0.9782479670135157E-01   8   8   6   3
  0.3290675345010460E-01   8   8   6   4
 -0.1628057487662871E-01   8   8   6   5
  0.4872383129962050E+00   8   8   6   6
  0.3324286960322678E-02   8   8   7   1
 -0.3229574131404023E-01   8   8   7   2
  0.3698033058617020E-01   8   8   7   3
  0.2176873048404016E-01   8   8   7   4
  0.5018968577979233E-02   8   8   7   5
 -0.1770775104383560E-02   8   8   7   6
  0.4373524827658574E+00   8   8   7   7
  0.6495579232012105E-02   8   8   8   1
 -0.4559011197369978E-01   8   8   8   2
  0.2559230088723297E-01   8   8   8   3
  0.5373759634550213E-01   8   8   8   4
  0.1619481397498579E-01   8   8   8   5
 -0.6702513519214470E-02   8   8   8   6
  0.1775065225337480E-01   8   8   8   7
  0.5288867500821554E+00   8   8   8   8
 -0.1926493755659953E+00   9   1   1   1
  0.3184186311905682E-01   9   1   2   1
 -0.2424743970494165E-03   9   1   2   2
  0.1051651227638947E-01   9   1   3   1
  0.1917240266269513E-01   9   1   3   2
 -0.1341859217285176E-01   9   1   3   3
 -0.1731749965909823E-01   9   1   4   1
 -0.3993344847628001E-02   9   1   4   2
 -0.1903856769501895E-02   9   1   4   3
  0.3221283982358177E-02   9   1   4   4
  0.1975249681233746E-01   9   1   5   1
  0.5891236532403033E-02   9   1   5   2
  0.7997959047016169E-04   9   1   5   3
 -0.3047251513466545E-02   9   1   5   4
  0.5277181243507486E-02   9   1   5   5
 -0.1691638243671714E-01   9   1   6   1
 -0.1094559126005689E-01   9   1   6   2
  0.1134591794697325E-01   9   1   6   3
  0.2867733227111827E-02   9   1   6   4
  0.8231042151825179E-03   9   1   6   5
 -0.1014899812477084E-01   9   1   6   6
 -0.6270501937991491E-02   9   1   7   1
  0.4091282424312923E-02   9   1   7   2
 -0.5703899416322428E-03   9   1   7   3
 -0.1053730909551035E-02   9   1   7   4
 -0.7371463736498443E-03   9   1   7   5
  0.7042861649747387E-02   9   1   7   6
 -0.1378008673415261E-02   9   1   7   7
 -0.2045843429194766E-01   9   1   8   1
  0.4229701639225616E-02   9   1   8   2
 -0.1337206381191703E-01   9   1   8   3
  0.1953660735014989E-02   9   1   8   4
 -0.3664092883087666E-02   9   1   8   5
  0.1353507337685165E-01   9   1   8   6
 -0.4692983911213609E-02   9   1   8   7
 -0.4004379777453436E-02   9   1   8   8
  0.3091961648075027E-01   9   1   9   1
  0.1729751991999672E+00   9   2   1   1
 -0.7346364943108527E-02   9   2   2   1
  0.3349212793174235E-01   9   2   2   2
  0.9513891051451012E-02   9   2   3   1
 -0.1115505242687977E-01   9   2   3   2
  0.2424770530622413E-01   9   2   3   3
  0.8568046525441256E-04   9   2   4   1
 -0.1983315173419809E-01   9   2   4   2
 -0.1170604028386198E-01   9   2   4   3
  0.7109578173267224E-02   9   2   4   4
  0.1943004598618168E-02   9   2   5   1
  0.3290516216212072E-01   9   2   5   2
  0.2022759648018940E-01   9   2   5   3
 -0.1077004389896096E-01   9   2   5   4
 -0.1798492166199708E-02   9   2   5   5
 -0.9199250961431846E-02   9   2   6   1
 -0.2904913631738668E-03   9   2   6   2
 -0.2619307905035344E-01   9   2   6   3
  0.7084663579765843E-02   9   2   6   4
 -0.2054225334329401E-01   9   2   6   5
  0.1525406894769595E-01   9   2   6   6
  0.4459168731181729E-02   9   2   7   1
 -0.1236363626584415E-01   9   2   7   2