 &FCI NORB=  5,NELEC=  2,MS2= 0,
  ORBSYM=1,1,2,3,5,
  ISYM=1,
  IUHF=1,
  OCC=  1,  0,  0,  0,  0,  0,  0,  0,
  CLOSED=  1,  0,  0,  0,  0,  0,  0,  0,
 /
  0.1026864625364801E+01   1   1   1   1
 -0.3164468354454516E+00   2   1   1   1
  0.2275051584329760E+00   2   1   2   1
  0.8575924296274904E+00   2   2   1   1
 -0.2551952960411584E+00   2   2   2   1
  0.7654947267522272E+00   2   2   2   2
  0.9612619859176096E+00   3   3   1   1
 -0.2304847678850260E+00   3   3   2   1
  0.7749532516379118E+00   3   3   2   2
  0.1040530899123288E+01   3   3   3   3
  0.9612619859176096E+00   4   4   1   1
 -0.2304847678850260E+00   4   4   2   1
  0.7749532516379118E+00   4   4   2   2
  0.9131189522918646E+00   4   4   3   3
  0.1040530899123288E+01   4   4   4   4
  0.9612619859176096E+00   5   5   1   1
 -0.2304847678850260E+00   5   5   2   1
  0.7749532516379118E+00   5   5   2   2
  0.9131189522918646E+00   5   5   3   3
  0.9131189522918646E+00   5   5   4   4
  0.1040530899123288E+01   5   5   5   5
  0.1831492363854897E+00   3   1   3   1
 -0.2538575550499456E-01   3   2   3   1
  0.2852866160740507E-01   3   2   3   2
  0.1831492363854897E+00   4   1   4   1
 -0.2538575550499456E-01   4   2   4   1
  0.2852866160740507E-01   4   2   4   2
  0.6370597341571141E-01   4   3   4   3
  0.1831492363854897E+00   5   1   5   1
 -0.2538575550499456E-01   5   2   5   1
  0.2852866160740507E-01   5   2   5   2
  0.6370597341571141E-01   5   3   5   3
  0.6370597341571141E-01   5   4   5   4
  0.0000000000000000E+00   0   0   0   0
  0.1026864625364801E+01   1   1   1   1
 -0.3164468354454516E+00   2   1   1   1
  0.2275051584329760E+00   2   1   2   1
  0.8575924296274904E+00   2   2   1   1
 -0.2551952960411584E+00   2   2   2   1
  0.7654947267522272E+00   2   2   2   2
  0.9612619859176096E+00   3   3   1   1
 -0.2304847678850260E+00   3   3   2   1
  0.7749532516379118E+00   3   3   2   2
  0.1040530899123288E+01   3   3   3   3
  0.9612619859176096E+00   4   4   1   1
 -0.2304847678850260E+00   4   4   2   1
  0.7749532516379118E+00   4   4   2   2
  0.9131189522918646E+00   4   4   3   3
  0.1040530899123288E+01   4   4   4   4
  0.9612619859176096E+00   5   5   1   1
 -0.2304847678850260E+00   5   5   2   1
  0.7749532516379118E+00   5   5   2   2
  0.9131189522918646E+00   5   5   3   3
  0.9131189522918646E+00   5   5   4   4
  0.1040530899123288E+01   5   5   5   5
  0.1831492363854897E+00   3   1   3   1
 -0.2538575550499456E-01   3   2   3   1
  0.2852866160740507E-01   3   2   3   2
  0.1831492363854897E+00   4   1   4   1
 -0.2538575550499456E-01   4   2   4   1
  0.2852866160740507E-01   4   2   4   2
  0.6370597341571141E-01   4   3   4   3
  0.1831492363854897E+00   5   1   5   1
 -0.2538575550499456E-01   5   2   5   1
  0.2852866160740507E-01   5   2   5   2
  0.6370597341571141E-01   5   3   5   3
  0.6370597341571141E-01   5   4   5   4
  0.0000000000000000E+00   0   0   0   0
  0.1026864625364801E+01   1   1   1   1
 -0.3164468354454515E+00   1   1   2   1
  0.8575924296274922E+00   1   1   2   2
  0.9612619859176096E+00   1   1   3   3
  0.9612619859176096E+00   1   1   4   4
  0.9612619859176096E+00   1   1   5   5
 -0.3164468354454516E+00   2   1   1   1
  0.2275051584329760E+00   2   1   2   1
 -0.2551952960411631E+00   2   1   2   2
 -0.2304847678850260E+00   2   1   3   3
 -0.2304847678850260E+00   2   1   4   4
 -0.2304847678850260E+00   2   1   5   5
  0.8575924296274904E+00   2   2   1   1
 -0.2551952960411584E+00   2   2   2   1
  0.7654947267522272E+00   2   2   2   2
  0.7749532516379118E+00   2   2   3   3
  0.7749532516379118E+00   2   2   4   4
  0.7749532516379118E+00   2   2   5   5
  0.9612619859176096E+00   3   3   1   1
 -0.2304847678850260E+00   3   3   2   1
  0.7749532516379118E+00   3   3   2   2
  0.1040530899123288E+01   3   3   3   3
  0.9131189522918646E+00   3   3   4   4
  0.9131189522918646E+00   3   3   5   5
  0.9612619859176096E+00   4   4   1   1
 -0.2304847678850260E+00   4   4   2   1
  0.7749532516379118E+00   4   4   2   2
  0.9131189522918646E+00   4   4   3   3
  0.1040530899123288E+01   4   4   4   4
  0.9131189522918646E+00   4   4   5   5
  0.9612619859176096E+00   5   5   1   1
 -0.2304847678850260E+00   5   5   2   1
  0.7749532516379118E+00   5   5   2   2
  0.9131189522918646E+00   5   5   3   3
  0.9131189522918646E+00   5   5   4   4
  0.1040530899123288E+01   5   5   5   5
  0.1831492363854897E+00   3   1   3   1
 -0.2538575550499450E-01   3   1   3   2
 -0.2538575550499456E-01   3   2   3   1
  0.2852866160740507E-01   3   2   3   2
  0.1831492363854897E+00   4   1   4   1
 -0.2538575550499450E-01   4   1   4   2
 -0.2538575550499456E-01   4   2   4   1
  0.2852866160740507E-01   4   2   4   2
  0.6370597341571141E-01   4   3   4   3
  0.1831492363854897E+00   5   1   5   1
 -0.2538575550499450E-01   5   1   5   2
 -0.2538575550499456E-01   5   2   5   1
  0.2852866160740507E-01   5   2   5   2
  0.6370597341571141E-01   5   3   5   3
  0.6370597341571141E-01   5   4   5   4
  0.0000000000000000E+00   0   0   0   0
 -0.1941012551303768E+01   1   1   0   0
  0.3164468354454515E+00   2   1   0   0
 -0.9023799659205167E-01   2   2   0   0
  0.7849972904352338E+00   3   3   0   0
  0.7849972904352338E+00   4   4   0   0
  0.7849972904352338E+00   5   5   0   0
  0.0000000000000000E+00   0   0   0   0
 -0.1941012551303768E+01   1   1   0   0
  0.3164468354454515E+00   2   1   0   0
 -0.9023799659205167E-01   2   2   0   0
  0.7849972904352338E+00   3   3   0   0
  0.7849972904352338E+00   4   4   0   0
  0.7849972904352338E+00   5   5   0   0
  0.0000000000000000E+00   0   0   0   0
  0.0000000000000000E+00   0   0   0   0
