 &FCI NORB= 14,NELEC=  3,MS2= 1,
  ORBSYM=1,1,1,1,1,2,2,3,3,4,5,5,6,7,
  ISYM=1,
  IUHF=1,
  OCC=  2,  0,  0,  0,  0,  0,  0,  0,
  CLOSED=  1,  0,  0,  0,  0,  0,  0,  0,
 /
  0.1650653172499861E+01   1   1   1   1
 -0.1216238619103877E+00   2   1   1   1
  0.1399336132361538E-01   2   1   2   1
  0.3224242922986287E+00   2   2   1   1
 -0.2746276668271817E-02   2   2   2   1
  0.2340722382310245E+00   2   2   2   2
  0.7873460431094374E-01   3   1   1   1
 -0.8526007383744913E-02   3   1   2   1
  0.1844102984198943E-02   3   1   2   2
  0.5521398227997885E-02   3   1   3   1
 -0.1083893546406222E+00   3   2   1   1
  0.1677596747512488E-02   3   2   2   1
 -0.4748620061425442E-01   3   2   2   2
 -0.1152461849816606E-02   3   2   3   1
  0.2642924818158737E-01   3   2   3   2
  0.2317347809334720E+00   3   3   1   1
 -0.1212281456218906E-02   3   3   2   1
  0.1807010386055097E+00   3   3   2   2
  0.8810654931679929E-03   3   3   3   1
 -0.2562858272490903E-01   3   3   3   2
  0.1528047510962354E+00   3   3   3   3
  0.0000000000000000E+00   4   1   1   1
  0.0000000000000000E+00   4   1   2   1
  0.0000000000000000E+00   4   1   2   2
  0.0000000000000000E+00   4   1   3   1
  0.0000000000000000E+00   4   1   3   2
  0.0000000000000000E+00   4   1   3   3
  0.2543546247205911E-03   4   1   4   1
  0.0000000000000000E+00   4   2   1   1
  0.0000000000000000E+00   4   2   2   1
  0.0000000000000000E+00   4   2   2   2
  0.0000000000000000E+00   4   2   3   1
  0.0000000000000000E+00   4   2   3   2
  0.0000000000000000E+00   4   2   3   3
  0.1231214745893190E-02   4   2   4   1
  0.2464697426005718E-01   4   2   4   2
  0.0000000000000000E+00   4   3   1   1
  0.0000000000000000E+00   4   3   2   1
  0.0000000000000000E+00   4   3   2   2
  0.0000000000000000E+00   4   3   3   1
  0.0000000000000000E+00   4   3   3   2
  0.0000000000000000E+00   4   3   3   3
 -0.6966662522838854E-03   4   3   4   1
 -0.6697795208217811E-02   4   3   4   2
  0.5087647712525545E-02   4   3   4   3
  0.2877964766143098E+00   4   4   1   1
 -0.3271712970442197E-03   4   4   2   1
  0.2356259169412913E+00   4   4   2   2
  0.2915995550910461E-03   4   4   3   1
 -0.4546076753058631E-01   4   4   3   2
  0.1802976915052414E+00   4   4   3   3
  0.7612615715164475E-03   4   4   4   1
  0.1700134416155229E-01   4   4   4   2
 -0.4411742798886441E-02   4   4   4   3
  0.2601143287146928E+00   4   4   4   4
  0.0000000000000000E+00   5   1   1   1
  0.0000000000000000E+00   5   1   2   1
  0.0000000000000000E+00   5   1   2   2
  0.0000000000000000E+00   5   1   3   1
  0.0000000000000000E+00   5   1   3   2
  0.0000000000000000E+00   5   1   3   3
  0.0000000000000000E+00   5   1   4   1
  0.0000000000000000E+00   5   1   4   2
  0.0000000000000000E+00   5   1   4   3
  0.0000000000000000E+00   5   1   4   4
  0.2543546247205913E-03   5   1   5   1
  0.0000000000000000E+00   5   2   1   1
  0.0000000000000000E+00   5   2   2   1
  0.0000000000000000E+00   5   2   2   2
  0.0000000000000000E+00   5   2   3   1
  0.0000000000000000E+00   5   2   3   2
  0.0000000000000000E+00   5   2   3   3
  0.0000000000000000E+00   5   2   4   1
  0.0000000000000000E+00   5   2   4   2
  0.0000000000000000E+00   5   2   4   3
  0.0000000000000000E+00   5   2   4   4
  0.1231214745893191E-02   5   2   5   1
  0.2464697426005720E-01   5   2   5   2
  0.0000000000000000E+00   5   3   1   1
  0.0000000000000000E+00   5   3   2   1
  0.0000000000000000E+00   5   3   2   2
  0.0000000000000000E+00   5   3   3   1
  0.0000000000000000E+00   5   3   3   2
  0.0000000000000000E+00   5   3   3   3
  0.0000000000000000E+00   5   3   4   1
  0.0000000000000000E+00   5   3   4   2
  0.0000000000000000E+00   5   3   4   3
  0.0000000000000000E+00   5   3   4   4
 -0.6966662522838860E-03   5   3   5   1
 -0.6697795208217804E-02   5   3   5   2
  0.5087647712525450E-02   5   3   5   3
  0.0000000000000000E+00   5   4   1   1
  0.0000000000000000E+00   5   4   2   1
  0.0000000000000000E+00   5   4   2   2
  0.0000000000000000E+00   5   4   3   1
  0.0000000000000000E+00   5   4   3   2
  0.0000000000000000E+00   5   4   3   3
  0.0000000000000000E+00   5   4   4   1
  0.0000000000000000E+00   5   4   4   2
  0.0000000000000000E+00   5   4   4   3
  0.0000000000000000E+00   5   4   4   4
 -0.7612615714905650E-03   5   4   5   1
 -0.1700134417155230E-01   5   4   5   2
  0.4411742834486508E-02   5   4   5   3
  0.1522066376000004E-01   5   4   5   4
  0.2877964766143100E+00   5   5   1   1
 -0.3271712970442199E-03   5   5   2   1
  0.2356259169412915E+00   5   5   2   2
  0.2915995550909906E-03   5   5   3   1
 -0.4546076753058625E-01   5   5   3   2
  0.1802976915052419E+00   5   5   3   3
 -0.7612615715164482E-03   5   5   4   1
 -0.1700134416155230E-01   5   5   4   2
  0.4411742798886441E-02   5   5   4   3
  0.2296730011620564E+00   5   5   4   4
  0.0000000000000000E+00   5   5   5   1
  0.0000000000000000E+00   5   5   5   2
  0.0000000000000000E+00   5   5   5   3
  0.0000000000000000E+00   5   5   5   4
  0.2601143287146930E+00   5   5   5   5
  0.1960575662468804E+00   6   6   1   1
 -0.2722599475204344E-03   6   6   2   1
  0.1738483601927385E+00   6   6   2   2
  0.2420654961158147E-03   6   6   3   1
 -0.1875764538037983E-01   6   6   3   2
  0.1475909932654725E+00   6   6   3   3
 -0.2398693497121799E-03   6   6   4   1
 -0.6792747201519919E-02   6   6   4   2
  0.3757233685825688E-03   6   6   4   3
  0.1716124512063528E+00   6   6   4   4
  0.4154659180479075E-03   6   6   5   1
  0.1176538327223690E-01   6   6   5   2
 -0.6507719246724725E-03   6   6   5   3
 -0.8090997494535292E-02   6   6   5   4
  0.1809551303808883E+00   6   6   5   5
  0.1584698427323255E+00   6   6   6   6
  0.9882086239515840E-01   7   6   1   1
 -0.8605910381093604E-03   7   6   2   1
  0.5455314561972145E-01   7   6   2   2
  0.6893323132698206E-03   7   6   3   1
 -0.2376750592680948E-01   7   6   3   2
  0.3031411421379939E-01   7   6   3   3
 -0.3131762793779969E-03   7   6   4   1
 -0.3760353023725809E-02   7   6   4   2
  0.2042109662048060E-02   7   6   4   3
  0.5212911774123681E-01   7   6   4   4
  0.5424372244300039E-03   7   6   5   1
  0.6513122512687174E-02   7   6   5   2
 -0.3537037918089687E-02   7   6   5   3
 -0.4468561232523760E-02   7   6   5   4
  0.5728896779278057E-01   7   6   5   5
  0.2726875250135604E-01   7   6   6   6
  0.2960067508407511E-01   7   6   7   6
  0.3269596672174963E+00   7   7   1   1
 -0.2763967485225935E-02   7   7   2   1
  0.2170130252343064E+00   7   7   2   2
  0.2200562413807505E-02   7   7   3   1
 -0.4712982621339801E-01   7   7   3   2
  0.1709319501944896E+00   7   7   3   3
 -0.7139711439134904E-03   7   7   4   1
 -0.8155007761766727E-02   7   7   4   2
  0.2999429525111405E-02   7   7   4   3
  0.2095741980026703E+00   7   7   4   4
  0.1236634093049248E-02   7   7   5   1
  0.1412488801591363E-01   7   7   5   2
 -0.5195164673986359E-02   7   7   5   3
 -0.9364216686725057E-02   7   7   5   4
  0.2203870640661782E+00   7   7   5   5
  0.1700285913244867E+00   7   7   6   6
  0.5440935755249068E-01   7   7   7   6
  0.2220104497205507E+00   7   7   7   7
  0.1960575662468804E+00   8   8   1   1
 -0.2722599475204344E-03   8   8   2   1
  0.1738483601927385E+00   8   8   2   2
  0.2420654961158147E-03   8   8   3   1
 -0.1875764538037983E-01   8   8   3   2
  0.1475909932654725E+00   8   8   3   3
 -0.2398693497121799E-03   8   8   4   1
 -0.6792747201519919E-02   8   8   4   2
  0.3757233685825688E-03   8   8   4   3
  0.1716124512063529E+00   8   8   4   4
 -0.4154659180479075E-03   8   8   5   1
 -0.1176538327223690E-01   8   8   5   2
  0.6507719246724725E-03   8   8   5   3
  0.8090997494535292E-02   8   8   5   4
  0.1809551303808883E+00   8   8   5   5
  0.1406377586287499E+00   8   8   6   6
  0.2597912282455161E-01   8   8   7   6
  0.1558290983183642E+00   8   8   7   7
  0.1584698427323255E+00   8   8   8   8
  0.9882086239515840E-01   9   8   1   1
 -0.8605910381093604E-03   9   8   2   1
  0.5455314561972145E-01   9   8   2   2
  0.6893323132698206E-03   9   8   3   1
 -0.2376750592680948E-01   9   8   3   2
  0.3031411421379939E-01   9   8   3   3
 -0.3131762793779969E-03   9   8   4   1
 -0.3760353023725809E-02   9   8   4   2
  0.2042109662048060E-02   9   8   4   3
  0.5212911774123676E-01   9   8   4   4
 -0.5424372244300039E-03   9   8   5   1
 -0.6513122512687174E-02   9   8   5   2
  0.3537037918089687E-02   9   8   5   3
  0.4468561232523760E-02   9   8   5   4
  0.5728896779278057E-01   9   8   5   5
  0.2597912282455165E-01   9   8   6   6
  0.2221550577255222E-01   9   8   7   6
  0.4742348482595603E-01   9   8   7   7
  0.2726875250135604E-01   9   8   8   8
  0.2960067508407511E-01   9   8   9   8
  0.3269596672174963E+00   9   9   1   1
 -0.2763967485225935E-02   9   9   2   1
  0.2170130252343064E+00   9   9   2   2
  0.2200562413807505E-02   9   9   3   1
 -0.4712982621339801E-01   9   9   3   2
  0.1709319501944896E+00   9   9   3   3
 -0.7139711439134904E-03   9   9   4   1
 -0.8155007761766727E-02   9   9   4   2
  0.2999429525111405E-02   9   9   4   3
  0.2095741980026704E+00   9   9   4   4
 -0.1236634093049248E-02   9   9   5   1
 -0.1412488801591363E-01   9   9   5   2
  0.5195164673986359E-02   9   9   5   3
  0.9364216686725057E-02   9   9   5   4
  0.2203870640661782E+00   9   9   5   5
  0.1558290983183640E+00   9   9   6   6
  0.4742348482595599E-01   9   9   7   6
  0.2006109497133535E+00   9   9   7   7
  0.1700285913244867E+00   9   9   8   8
  0.5440935755249068E-01   9   9   9   8
  0.2220104497205507E+00   9   9   9   9
  0.2877964766143097E+00  10  10   1   1
 -0.3271712970442190E-03  10  10   2   1
  0.2356259169412910E+00  10  10   2   2
  0.2915995550908518E-03  10  10   3   1
 -0.4546076753058625E-01  10  10   3   2
  0.1802976915052420E+00  10  10   3   3
 -0.7612615715164469E-03  10  10   4   1
 -0.1700134416155228E-01  10  10   4   2
  0.4411742798886441E-02  10  10   4   3
  0.2296730011620562E+00  10  10   4   4
  0.0000000000000000E+00  10  10   5   1
  0.0000000000000000E+00  10  10   5   2
  0.0000000000000000E+00  10  10   5   3
  0.0000000000000000E+00  10  10   5   4
  0.2442121426797334E+00  10  10   5   5
  0.1809551303808881E+00  10  10   6   6
  0.5728896779278048E-01  10  10   7   6
  0.2203870640661774E+00  10  10   7   7
  0.1809551303808881E+00  10  10   8   8
  0.5728896779278048E-01  10  10   9   8
  0.2203870640661774E+00  10  10   9   9
  0.2601143287146923E+00  10  10  10  10
  0.1960575662468804E+00  11  11   1   1
 -0.2722599475204344E-03  11  11   2   1
  0.1738483601927385E+00  11  11   2   2
  0.2420654961158147E-03  11  11   3   1
 -0.1875764538037983E-01  11  11   3   2
  0.1475909932654725E+00  11  11   3   3
  0.4797387224860061E-03  11  11   4   1
  0.1358549441424960E-01  11  11   4   2
 -0.7514467419218813E-03  11  11   4   3
  0.1856264699681560E+00  11  11   4   4
  0.0000000000000000E+00  11  11   5   1
  0.0000000000000000E+00  11  11   5   2
  0.0000000000000000E+00  11  11   5   3
  0.0000000000000000E+00  11  11   5   4
  0.1669411116190851E+00  11  11   5   5
  0.1406377586287499E+00  11  11   6   6
  0.2597912282455161E-01  11  11   7   6
  0.1558290983183640E+00  11  11   7   7
  0.1406377586287499E+00  11  11   8   8
  0.2597912282455161E-01  11  11   9   8
  0.1558290983183640E+00  11  11   9   9
  0.1669411116190849E+00  11  11  10  10
  0.1584698427323255E+00  11  11  11  11
  0.9882086239515840E-01  12  11   1   1
 -0.8605910381093602E-03  12  11   2   1
  0.5455314561972145E-01  12  11   2   2
  0.6893323132698206E-03  12  11   3   1
 -0.2376750592680937E-01  12  11   3   2
  0.3031411421379877E-01  12  11   3   3
  0.6263525489326922E-03  12  11   4   1
  0.7520706037884916E-02  12  11   4   2
 -0.4084219361405213E-02  12  11   4   3
  0.5986889281855240E-01  12  11   4   4
  0.0000000000000000E+00  12  11   5   1
  0.0000000000000000E+00  12  11   5   2
  0.0000000000000000E+00  12  11   5   3
  0.0000000000000000E+00  12  11   5   4
  0.4954919271546493E-01  12  11   5   5
  0.2597912282455160E-01  12  11   6   6
  0.2221550577255214E-01  12  11   7   6
  0.4742348482595651E-01  12  11   7   7
  0.2597912282455160E-01  12  11   8   8
  0.2221550577255214E-01  12  11   9   8
  0.4742348482595651E-01  12  11   9   9
  0.4954919271546479E-01  12  11  10  10
  0.2726875250135605E-01  12  11  11  11
  0.2960067508407517E-01  12  11  12  11
  0.3269596672174963E+00  12  12   1   1
 -0.2763967485225935E-02  12  12   2   1
  0.2170130252343064E+00  12  12   2   2
  0.2200562413807505E-02  12  12   3   1
 -0.4712982621339801E-01  12  12   3   2
  0.1709319501944896E+00  12  12   3   3
  0.1427942112944100E-02  12  12   4   1
  0.1631001569537079E-01  12  12   4   2
 -0.5998859565810167E-02  12  12   4   3
  0.2257934970979313E+00  12  12   4   4
  0.0000000000000000E+00  12  12   5   1
  0.0000000000000000E+00  12  12   5   2
  0.0000000000000000E+00  12  12   5   3
  0.0000000000000000E+00  12  12   5   4
  0.2041677649709163E+00  12  12   5   5
  0.1558290983183641E+00  12  12   6   6
  0.4742348482595618E-01  12  12   7   6
  0.2006109497133530E+00  12  12   7   7
  0.1558290983183641E+00  12  12   8   8
  0.4742348482595618E-01  12  12   9   8
  0.2006109497133530E+00  12  12   9   9
  0.2041677649709167E+00  12  12  10  10
  0.1700285913244868E+00  12  12  11  11
  0.5440935755249046E-01  12  12  12  11
  0.2220104497205507E+00  12  12  12  12
  0.2877964766143098E+00  13  13   1   1
 -0.3271712970442189E-03  13  13   2   1
  0.2356259169412910E+00  13  13   2   2
  0.2915995550908101E-03  13  13   3   1
 -0.4546076753058625E-01  13  13   3   2
  0.1802976915052420E+00  13  13   3   3
  0.3806307857444157E-03  13  13   4   1
  0.8500672080776140E-02  13  13   4   2
 -0.2205871436918795E-02  13  13   4   3
  0.2405773573003140E+00  13  13   4   4
  0.6592718622594632E-03  13  13   5   1
  0.1472359595195923E-01  13  13   5   2
 -0.3820681354510896E-02  13  13   5   3
 -0.6295632940000007E-02  13  13   5   4
  0.2333077865414755E+00  13  13   5   5
  0.1809551303808881E+00  13  13   6   6
  0.5728896779278048E-01  13  13   7   6
  0.2203870640661774E+00  13  13   7   7
  0.1669411116190849E+00  13  13   8   8
  0.4954919271546476E-01  13  13   9   8
  0.2041677649709168E+00  13  13   9   9
  0.2333077865414751E+00  13  13  10  10
  0.1809551303808881E+00  13  13  11  11
  0.5728896779278045E-01  13  13  12  11
  0.2203870640661773E+00  13  13  12  12
  0.2601143287146923E+00  13  13  13  13
  0.2877964766143098E+00  14  14   1   1
 -0.3271712970442189E-03  14  14   2   1
  0.2356259169412910E+00  14  14   2   2
  0.2915995550908101E-03  14  14   3   1
 -0.4546076753058625E-01  14  14   3   2
  0.1802976915052420E+00  14  14   3   3
  0.3806307857444157E-03  14  14   4   1
  0.8500672080776140E-02  14  14   4   2
 -0.2205871436918795E-02  14  14   4   3
  0.2405773573003140E+00  14  14   4   4
 -0.6592718622594632E-03  14  14   5   1
 -0.1472359595195923E-01  14  14   5   2
  0.3820681354510896E-02  14  14   5   3
  0.6295632940000007E-02  14  14   5   4
  0.2333077865414755E+00  14  14   5   5
  0.1669411116190849E+00  14  14   6   6
  0.4954919271546476E-01  14  14   7   6
  0.2041677649709168E+00  14  14   7   7
  0.1809551303808881E+00  14  14   8   8
  0.5728896779278048E-01  14  14   9   8
  0.2203870640661774E+00  14  14   9   9
  0.2333077865414751E+00  14  14  10  10
  0.1809551303808881E+00  14  14  11  11
  0.5728896779278045E-01  14  14  12  11
  0.2203870640661773E+00  14  14  12  12
  0.2333077865414751E+00  14  14  13  13
  0.2601143287146923E+00  14  14  14  14
  0.7603296137759142E-03   6   1   6   1
  0.1938942619988565E-02   6   2   6   1
  0.3049784187357723E-01   6   2   6   2
 -0.4547868977097144E-03   6   3   6   1
  0.9129750960584476E-02   6   3   6   2
  0.1476560158888284E-01   6   3   6   3
 -0.8132934642670955E-03   6   4   6   1
 -0.1297571907387270E-01   6   4   6   2
 -0.3051881849103991E-02   6   4   6   3
  0.9511486921994562E-02   6   4   6   4
  0.1408665598231644E-02   6   5   6   1
  0.2247460470894345E-01   6   5   6   2
  0.5286014421104136E-02   6   5   6   3
 -0.1088006482274775E-01   6   5   6   4
  0.2207470364229190E-01   6   5   6   5
  0.2506232849201682E-02   7   1   6   1
  0.5559091244472565E-02   7   1   6   2
 -0.1376132184863340E-02   7   1   6   3
 -0.2319088965975894E-02   7   1   6   4
  0.4016779928597962E-02   7   1   6   5
  0.8344695916982618E-02   7   1   7   1
  0.2809045556186308E-02   7   2   6   1
  0.2400093036825262E-01   7   2   6   2
 -0.3720798603435522E-02   7   2   6   3
 -0.1077368894190659E-01   7   2   6   4
  0.1866057667478547E-01   7   2   6   5
  0.8215382404988323E-02   7   2   7   1
  0.2943871602466475E-01   7   2   7   2
 -0.2229657645129567E-02   7   3   6   1
 -0.2387351412456299E-01   7   3   6   2
 -0.5936368767342503E-02   7   3   6   3
  0.9759388012322991E-02   7   3   6   4
 -0.1690375603611896E-01   7   3   6   5
 -0.6518473225923371E-02   7   3   7   1
 -0.2150147564906535E-01   7   3   7   2
  0.2313825741557732E-01   7   3   7   3
 -0.1148079963573237E-02   7   4   6   1
 -0.1195033175832470E-01   7   4   6   2
  0.2076283593014657E-03   7   4   6   3
  0.8822827637612508E-02   7   4   6   4
 -0.1019752911148805E-01   7   4   6   5
 -0.3340147188780153E-02   7   4   7   1
 -0.1299051747365810E-01   7   4   7   2
  0.1021454307862192E-01   7   4   7   3
  0.1022783806413642E-01   7   4   7   4
  0.1988532825982798E-02   7   5   6   1
  0.2069858179334644E-01   7   5   6   2
 -0.3596228613463141E-03   7   5   6   3
 -0.1019752911148805E-01   7   5   6   4
  0.2059792002773810E-01   7   5   6   5
  0.5785304659522456E-02   7   5   7   1
  0.2250023635437762E-01   7   5   7   2
 -0.1769210739824228E-01   7   5   7   3
 -0.1153460535734057E-01   7   5   7   4
  0.2354685314718426E-01   7   5   7   5
  0.1408665598228199E-02  10   8   6   1
  0.2247460470894343E-01  10   8   6   2
  0.5286014411758282E-02  10   8   6   3
 -0.1088006482274774E-01  10   8   6   4
  0.1238506790998839E-01  10   8   6   5
  0.4016779928571757E-02  10   8   7   1
  0.1866057667372992E-01  10   8   7   2
 -0.1690375611088971E-01  10   8   7   3
 -0.1019752911148804E-01  10   8   7   4
  0.1179207562930385E-01  10   8   7   5
  0.2207470364229186E-01  10   8  10   8
  0.1988532826001537E-02  10   9   6   1
  0.2069858179440198E-01  10   9   6   2
 -0.3596228068239504E-03  10   9   6   3
 -0.1019752911148804E-01  10   9   6   4
  0.1179207562930386E-01  10   9   6   5
  0.5785304659581822E-02  10   9   7   1
  0.2250023635437762E-01  10   9   7   2
 -0.1769210723711070E-01  10   9   7   3
 -0.1153460535734058E-01  10   9   7   4
  0.1284186127276173E-01  10   9   7   5
  0.2059792002773806E-01  10   9  10   8
  0.2354685314718428E-01  10   9  10   9
  0.1408665598228199E-02  13  11   6   1
  0.2247460470894343E-01  13  11   6   2
  0.5286014411758288E-02  13  11   6   3
 -0.5285751016015557E-02  13  11   6   4
  0.1561494648556157E-01  13  11   6   5
  0.4016779928571757E-02  13  11   7   1
  0.1866057667372991E-01  13  11   7   2
 -0.1690375611088967E-01  13  11   7   3
 -0.5113472505345135E-02  13  11   7   4
  0.1472735709559073E-01  13  11   7   5
  0.1561494648556155E-01  13  11  10   8
  0.1472735709559071E-01  13  11  10   9
  0.2207470364229186E-01  13  11  13  11
  0.1988532826001537E-02  13  12   6   1
  0.2069858179440198E-01  13  12   6   2
 -0.3596228068239681E-03  13  12   6   3
 -0.5113472505345134E-02  13  12   6   4
  0.1472735709559072E-01  13  12   6   5
  0.5785304659581822E-02  13  12   7   1
  0.2250023635437762E-01  13  12   7   2
 -0.1769210723711064E-01  13  12   7   3
 -0.5354075434548724E-02  13  12   7   4
  0.1641019195286133E-01  13  12   7   5
  0.1472735709559071E-01  13  12  10   8
  0.1641019195286132E-01  13  12  10   9
  0.2059792002773806E-01  13  12  13  11
  0.2354685314718428E-01  13  12  13  12
  0.7603296137759142E-03   8   1   8   1
  0.1938942619988565E-02   8   2   8   1
  0.3049784187357723E-01   8   2   8   2
 -0.4547868977097144E-03   8   3   8   1
  0.9129750960584476E-02   8   3   8   2
  0.1476560158888284E-01   8   3   8   3
 -0.8132934642670955E-03   8   4   8   1
 -0.1297571907387270E-01   8   4   8   2
 -0.3051881849103991E-02   8   4   8   3
  0.9511486921994562E-02   8   4   8   4
 -0.1408665598231644E-02   8   5   8   1
 -0.2247460470894345E-01   8   5   8   2
 -0.5286014421104136E-02   8   5   8   3
  0.1088006482274775E-01   8   5   8   4
  0.2207470364229190E-01   8   5   8   5
  0.2506232849201682E-02   9   1   8   1
  0.5559091244472565E-02   9   1   8   2
 -0.1376132184863340E-02   9   1   8   3
 -0.2319088965975894E-02   9   1   8   4
 -0.4016779928597962E-02   9   1   8   5
  0.8344695916982618E-02   9   1   9   1
  0.2809045556186308E-02   9   2   8   1
  0.2400093036825262E-01   9   2   8   2
 -0.3720798603435522E-02   9   2   8   3
 -0.1077368894190659E-01   9   2   8   4
 -0.1866057667478547E-01   9   2   8   5
  0.8215382404988323E-02   9   2   9   1
  0.2943871602466475E-01   9   2   9   2
 -0.2229657645129567E-02   9   3   8   1
 -0.2387351412456299E-01   9   3   8   2
 -0.5936368767342503E-02   9   3   8   3
  0.9759388012322991E-02   9   3   8   4
  0.1690375603611896E-01   9   3   8   5
 -0.6518473225923371E-02   9   3   9   1
 -0.2150147564906535E-01   9   3   9   2
  0.2313825741557732E-01   9   3   9   3
 -0.1148079963573237E-02   9   4   8   1
 -0.1195033175832470E-01   9   4   8   2
  0.2076283593014657E-03   9   4   8   3
  0.8822827637612508E-02   9   4   8   4
  0.1019752911148805E-01   9   4   8   5
 -0.3340147188780153E-02   9   4   9   1
 -0.1299051747365810E-01   9   4   9   2
  0.1021454307862192E-01   9   4   9   3
  0.1022783806413642E-01   9   4   9   4
 -0.1988532825982798E-02   9   5   8   1
 -0.2069858179334644E-01   9   5   8   2
  0.3596228613463141E-03   9   5   8   3
  0.1019752911148805E-01   9   5   8   4
  0.2059792002773810E-01   9   5   8   5
 -0.5785304659522456E-02   9   5   9   1
 -0.2250023635437762E-01   9   5   9   2
  0.1769210739824228E-01   9   5   9   3
  0.1153460535734057E-01   9   5   9   4
  0.2354685314718426E-01   9   5   9   5
  0.1408665597459406E-02  10   6   8   1
  0.2247460471167741E-01  10   6   8   2
  0.5286014414836394E-02  10   6   8   3
 -0.1088006481945689E-01  10   6   8   4
 -0.1238506790998839E-01  10   6   8   5
  0.4016779924508000E-02  10   6   9   1
  0.1866057665684845E-01  10   6   9   2
 -0.1690375601888672E-01  10   6   9   3
 -0.1019752912862274E-01  10   6   9   4
 -0.1179207562930385E-01  10   6   9   5
  0.2207470364229186E-01  10   6  10   6
  0.1988532821900532E-02  10   7   8   1
  0.2069858177646498E-01  10   7   8   2
 -0.3596228195726291E-03  10   7   8   3
 -0.1019752912862274E-01  10   7   8   4
 -0.1179207562930386E-01  10   7   8   5
  0.5785304637339882E-02  10   7   9   1
  0.2250023638712622E-01  10   7   9   2
 -0.1769210740400269E-01  10   7   9   3
 -0.1153460533772637E-01  10   7   9   4
 -0.1284186127276173E-01  10   7   9   5
  0.2059792002773806E-01  10   7  10   6
  0.2354685314718428E-01  10   7  10   7
  0.1408665598228199E-02  14  11   8   1
  0.2247460470894343E-01  14  11   8   2
  0.5286014411758288E-02  14  11   8   3
 -0.5285751016015557E-02  14  11   8   4
 -0.1561494648556157E-01  14  11   8   5
  0.4016779928571757E-02  14  11   9   1
  0.1866057667372991E-01  14  11   9   2
 -0.1690375611088967E-01  14  11   9   3
 -0.5113472505345135E-02  14  11   9   4
 -0.1472735709559073E-01  14  11   9   5
  0.1561494648556155E-01  14  11  10   6
  0.1472735709559071E-01  14  11  10   7
  0.2207470364229186E-01  14  11  14  11
  0.1988532826001537E-02  14  12   8   1
  0.2069858179440198E-01  14  12   8   2
 -0.3596228068239681E-03  14  12   8   3
 -0.5113472505345134E-02  14  12   8   4
 -0.1472735709559072E-01  14  12   8   5
  0.5785304659581822E-02  14  12   9   1
  0.2250023635437762E-01  14  12   9   2
 -0.1769210723711064E-01  14  12   9   3
 -0.5354075434548724E-02  14  12   9   4
 -0.1641019195286133E-01  14  12   9   5
  0.1472735709559071E-01  14  12  10   6
  0.1641019195286132E-01  14  12  10   7
  0.2059792002773806E-01  14  12  14  11
  0.2354685314718428E-01  14  12  14  12
  0.8916042052344341E-02   8   6   8   6
  0.6448148239787457E-03   8   7   8   6
  0.3692584693094513E-02   8   7   8   7
  0.6448148239787462E-03   9   6   8   6
  0.3692584693094514E-02   9   6   8   7
  0.3692584693094515E-02   9   6   9   6
  0.7099746500918301E-02   9   7   8   6
  0.3492936174633126E-02   9   7   8   7
  0.3492936174633129E-02   9   7   9   6
  0.1069974967890894E-01   9   7   9   7
  0.4154659228523098E-03  10   1   8   6
  0.5424372155773691E-03  10   1   8   7
  0.5424372155696746E-03  10   1   9   6
  0.1236634156931304E-02  10   1   9   7
  0.2543546247205909E-03  10   1  10   1
  0.1176538328666765E-01  10   2   8   6
  0.6513122496964167E-02  10   2   8   7
  0.6513122495908618E-02  10   2   9   6
  0.1412488802248372E-01  10   2   9   7
  0.1231214745893189E-02  10   2  10   1
  0.2464697426005715E-01  10   2  10   2
 -0.6507719271180382E-03  10   3   8   6
 -0.3537037854053945E-02  10   3   8   7
 -0.3537037878595503E-02  10   3   9   6
 -0.5195164676832740E-02  10   3   9   7
 -0.6966662522838842E-03  10   3  10   1
 -0.6697795208217903E-02  10   3  10   2
  0.5087647712526251E-02  10   3  10   3
 -0.8090997499359008E-02  10   4   8   6
 -0.4468561223627465E-02  10   4   8   7
 -0.4468561223627463E-02  10   4   9   6
 -0.9364216750616484E-02  10   4   9   7
 -0.7612615714905638E-03  10   4  10   1
 -0.1700134417155227E-01  10   4  10   2
  0.4411742834486504E-02  10   4  10   3
  0.1522066376000001E-01  10   4  10   4
  0.0000000000000000E+00  10   5   8   6
  0.0000000000000000E+00  10   5   8   7
  0.0000000000000000E+00  10   5   9   6
  0.0000000000000000E+00  10   5   9   7
  0.0000000000000000E+00  10   5  10   1
  0.0000000000000000E+00  10   5  10   2
  0.0000000000000000E+00  10   5  10   3
  0.0000000000000000E+00  10   5  10   4
  0.7951093000000013E-02  10   5  10   5
  0.7007009372339308E-02  14  13   8   6
  0.3869887529271214E-02  14  13   8   7
  0.3869887529271214E-02  14  13   9   6
  0.8109649669685387E-02  14  13   9   7
  0.6592718622594626E-03  14  13  10   1
  0.1472359595195921E-01  14  13  10   2
 -0.3820681354510892E-02  14  13  10   3
 -0.6295632950000002E-02  14  13  10   4
  0.0000000000000000E+00  14  13  10   5
  0.1340327108000000E-01  14  13  14  13
  0.7603296137759143E-03  11   1  11   1
  0.1938942619988565E-02  11   2  11   1
  0.3049784187357724E-01  11   2  11   2
 -0.4547868977097144E-03  11   3  11   1
  0.9129750960584460E-02  11   3  11   2
  0.1476560158888288E-01  11   3  11   3
  0.1626586928529224E-02  11   4  11   1
  0.2595143815770659E-01  11   4  11   2
  0.6103763719240635E-02  11   4  11   3
  0.2835631200363082E-01  11   4  11   4
  0.0000000000000000E+00  11   5  11   1
  0.0000000000000000E+00  11   5  11   2
  0.0000000000000000E+00  11   5  11   3
  0.0000000000000000E+00  11   5  11   4
  0.3229878572515402E-02  11   5  11   5
  0.2506232849201682E-02  12   1  11   1
  0.5559091244472565E-02  12   1  11   2
 -0.1376132184863341E-02  12   1  11   3
  0.4638177931790879E-02  12   1  11   4
  0.0000000000000000E+00  12   1  11   5
  0.8344695916982618E-02  12   1  12   1
  0.2809045556186308E-02  12   2  11   1
  0.2400093036825262E-01  12   2  11   2
 -0.3720798603435536E-02  12   2  11   3
  0.2154737794027105E-01  12   2  11   4
  0.0000000000000000E+00  12   2  11   5
  0.8215382404988323E-02  12   2  12   1
  0.2943871602466469E-01  12   2  12   2
 -0.2229657645129567E-02  12   3  11   1
 -0.2387351412456300E-01  12   3  11   2
 -0.5936368767342451E-02  12   3  11   3
 -0.1951877626574569E-01  12   3  11   4
  0.0000000000000000E+00  12   3  11   5
 -0.6518473225923371E-02  12   3  12   1
 -0.2150147564906511E-01  12   3  12   2
  0.2313825741557646E-01  12   3  12   3
  0.2296159927125915E-02  12   4  11   1
  0.2390066353030069E-01  12   4  11   2
 -0.4152567271008685E-03  12   4  11   3
  0.2648546620110866E-01  12   4  11   4
  0.0000000000000000E+00  12   4  11   5
  0.6680294377553788E-02  12   4  12   1
  0.2598103503638675E-01  12   4  12   2
 -0.2042908586630997E-01  12   4  12   3
  0.3020636072000913E-01  12   4  12   4
  0.0000000000000000E+00  12   5  11   1
  0.0000000000000000E+00  12   5  11   2
  0.0000000000000000E+00  12   5  11   3
  0.0000000000000000E+00  12   5  11   4
  0.2935281449852855E-02  12   5  11   5
  0.0000000000000000E+00  12   5  12   1
  0.0000000000000000E+00  12   5  12   2
  0.0000000000000000E+00  12   5  12   3
  0.0000000000000000E+00  12   5  12   4
  0.3568330591775190E-02  12   5  12   5
  0.1408665597459406E-02  13   6  11   1
  0.2247460471167740E-01  13   6  11   2
  0.5286014414836393E-02  13   6  11   3
  0.1616581584974676E-01  13   6  11   4
  0.3229878577804331E-02  13   6  11   5
  0.4016779924508000E-02  13   6  12   1
  0.1866057665684845E-01  13   6  12   2
 -0.1690375601888672E-01  13   6  12   3
  0.1531100161963900E-01  13   6  12   4
  0.2935281450165847E-02  13   6  12   5
  0.2207470364229186E-01  13   6  13   6
  0.1988532821900532E-02  13   7  11   1
  0.2069858177646498E-01  13   7  11   2
 -0.3596228195726299E-03  13   7  11   3
  0.1531100161963900E-01  13   7  11   4
  0.2935281450165846E-02  13   7  11   5
  0.5785304637339882E-02  13   7  12   1
  0.2250023638712622E-01  13   7  12   2
 -0.1769210740400269E-01  13   7  12   3
  0.1688868080364185E-01  13   7  12   4
  0.3568330591793716E-02  13   7  12   5
  0.2059792002773806E-01  13   7  13   6
  0.2354685314718428E-01  13   7  13   7
  0.1408665597459406E-02  14   8  11   1
  0.2247460471167740E-01  14   8  11   2
  0.5286014414836393E-02  14   8  11   3
  0.1616581584974676E-01  14   8  11   4
 -0.3229878577804331E-02  14   8  11   5
  0.4016779924508000E-02  14   8  12   1