 &FCI NORB=  4,NELEC=  4,MS2= 0,
  ORBSYM=1,1,1,1,
  ISYM=1,
  OCC=  2,  0,  0,  0,  0,  0,  0,  0,
  CLOSED=  2,  0,  0,  0,  0,  0,  0,  0,
 /
  0.2999999999999997E+00   1   1   1   1
 -0.1665334536937735E-15   2   1   1   1
  0.1999999999999998E+00   2   1   2   1
  0.1999999999999998E+00   2   2   1   1
  0.1318389841742373E-15   2   2   2   1
  0.2999999999999996E+00   2   2   2   2
 -0.9999999999999995E-01   3   1   1   1
 -0.4857225732735060E-16   3   1   2   1
  0.9999999999999981E-01   3   1   2   2
  0.1999999999999998E+00   3   1   3   1
 -0.4857225732735060E-16   3   2   1   1
  0.9999999999999981E-01   3   2   2   1
  0.1942890293094024E-15   3   2   2   2
 -0.1387778780781446E-16   3   2   3   1
  0.2999999999999996E+00   3   2   3   2
  0.1999999999999998E+00   3   3   1   1
 -0.2081668171172169E-16   3   3   2   1
  0.2999999999999996E+00   3   3   2   2
  0.9999999999999983E-01   3   3   3   1
  0.1387778780781446E-15   3   3   3   2
  0.2999999999999996E+00   3   3   3   3
 -0.2081668171172169E-15   4   1   1   1
  0.9999999999999996E-01   4   1   2   1
  0.6245004513516506E-16   4   1   2   2
  0.1266348137463069E-15   4   1   3   1
 -0.1999999999999998E+00   4   1   3   2
 -0.2081668171172169E-16   4   1   3   3
  0.2999999999999997E+00   4   1   4   1
  0.9999999999999996E-01   4   2   1   1
  0.6938893903907228E-16   4   2   2   1
 -0.9999999999999987E-01   4   2   2   2
 -0.1999999999999998E+00   4   2   3   1
 -0.2428612866367530E-15   4   2   3   2
 -0.9999999999999988E-01   4   2   3   3
  0.1162264728904461E-15   4   2   4   1
  0.1999999999999999E+00   4   2   4   2
  0.1214306433183765E-15   4   3   1   1
 -0.1999999999999998E+00   4   3   2   1
 -0.2498001805406602E-15   4   3   2   2
 -0.1734723475976807E-16   4   3   3   1
 -0.9999999999999987E-01   4   3   3   2
 -0.8326672684688674E-16   4   3   3   3
 -0.9999999999999989E-01   4   3   4   1
  0.0000000000000000E+00   4   3   4   2
  0.1999999999999998E+00   4   3   4   3
  0.2999999999999997E+00   4   4   1   1
  0.1144917494144693E-15   4   4   2   1
  0.1999999999999999E+00   4   4   2   2
 -0.9999999999999989E-01   4   4   3   1
  0.2081668171172169E-16   4   4   3   2
  0.1999999999999999E+00   4   4   3   3
  0.1214306433183765E-16   4   4   4   1
  0.9999999999999989E-01   4   4   4   2
 -0.1249000902703301E-15   4   4   4   3
  0.2999999999999997E+00   4   4   4   4
 -0.8090169943749470E+00   1   1   0   0
 -0.1942890293094024E-15   2   1   0   0
 -0.3090169943749473E+00   2   2   0   0
  0.2775557561562891E-16   3   1   0   0
 -0.5551115123125783E-16   3   2   0   0
  0.3090169943749472E+00   3   3   0   0
 -0.1665334536937735E-15   4   1   0   0
  0.1942890293094024E-15   4   2   0   0
 -0.5551115123125783E-16   4   3   0   0
  0.8090169943749471E+00   4   4   0   0
  0.0000000000000000E+00   0   0   0   0
