 &FCI NORB=  4,NELEC=  4,MS2= 0,
  ORBSYM=1,1,1,1,
  ISYM=1,
  OCC=  2,  0,  0,  0,  0,  0,  0,  0,
  CLOSED=  2,  0,  0,  0,  0,  0,  0,  0,
 /
  -0.802786404500042   1   1   0   0
  -1.697213595499957   2   2   0   0
  -0.894427190999915   3   1   0   0
  -1.697213595499957   3   3   0   0
   0.894427190999916   4   2   0   0
  -0.802786404500042   4   4   0   0
   5.000000000000000   0   0   0   0
