 &FCI NORB=  4,NELEC=  4,MS2= 0,
  ORBSYM=1,1,1,1,
  ISYM=1,
  OCC=  2,  0,  0,  0,  0,  0,  0,  0,
  CLOSED=  2,  0,  0,  0,  0,  0,  0,  0,
 /
   0.894427190999915   2   1   0   0
   0.947213595499957   3   2   0   0
  -0.052786404500042   4   1   0   0
  -0.894427190999916   4   3   0   0
   0.000000000000000   0   0   0   00
