 &FCI NORB=  4,NELEC=  4,MS2= 0,
  ORBSYM=1,1,1,1,
  ISYM=1,
  OCC=  2,  0,  0,  0,  0,  0,  0,  0,
  CLOSED=  2,  0,  0,  0,  0,  0,  0,  0,
 /
8.027864045000416e-01 1 1 0 0
-1.665334536937735e-16 2 1 0 0
1.697213595499957e+00 2 2 0 0
8.944271909999153e-01 3 1 0 0
5.551115123125783e-16 3 2 0 0
1.697213595499957e+00 3 3 0 0
8.326672684688674e-17 4 1 0 0
-8.944271909999156e-01 4 2 0 0
-4.440892098500626e-16 4 3 0 0
8.027864045000420e-01 4 4 0 0
0.000000000000000e+00 0 0 0 0
