 &FCI NORB=  4,NELEC=  4,MS2= 0,
  ORBSYM=1,1,5,5,
  ISYM=1,
  OCC=  1,  0,  0,  0,  1,  0,  0,  0,
  CLOSED=  1,  0,  0,  0,  1,  0,  0,  0,
 /
  0.2999999999999998E+00   1   1   1   1
  0.9999999999999992E-01   2   1   1   1
  0.1999999999999999E+00   2   1   2   1
  0.1999999999999999E+00   2   2   1   1
 -0.9999999999999992E-01   2   2   2   1
  0.2999999999999998E+00   2   2   2   2
  0.1999999999999999E+00   3   3   1   1
 -0.9999999999999992E-01   3   3   2   1
  0.2999999999999998E+00   3   3   2   2
  0.2999999999999998E+00   3   3   3   3
 -0.9999999999999992E-01   4   3   1   1
 -0.1999999999999999E+00   4   3   2   1
  0.9999999999999992E-01   4   3   2   2
  0.9999999999999992E-01   4   3   3   3
  0.1999999999999999E+00   4   3   4   3
  0.2999999999999998E+00   4   4   1   1
  0.9999999999999992E-01   4   4   2   1
  0.1999999999999999E+00   4   4   2   2
  0.1999999999999999E+00   4   4   3   3
 -0.9999999999999992E-01   4   4   4   3
  0.2999999999999998E+00   4   4   4   4
  0.1999999999999999E+00   3   1   3   1
 -0.9999999999999992E-01   3   2   3   1
  0.2999999999999998E+00   3   2   3   2
 -0.9999999999999992E-01   4   1   3   1
 -0.1999999999999999E+00   4   1   3   2
  0.2999999999999998E+00   4   1   4   1
 -0.1999999999999999E+00   4   2   3   1
  0.9999999999999992E-01   4   2   3   2
  0.9999999999999992E-01   4   2   4   1
  0.1999999999999999E+00   4   2   4   2
 -3.0889588412262770E-01	 1	 1	 0	 0
  4.6259999999972232E-05	 2	 1	 0	 0
  8.0903466412262759E-01	 2	 2	 0	 0
 -8.0901185437494716E-01	 3	 3	 0	 0
  1.2849999999722448E-06	 4	 3	 0	 0
  3.0902213437494730E-01	 4	 4	 0	 0
