
 Working directory              : /Volumes/Home/Users/peterk/tmp/molpro.8xRKIpSHip/
 Global scratch directory       : /Volumes/Home/Users/peterk/tmp/molpro.8xRKIpSHip/
 Wavefunction directory         : /Volumes/Home/Users/peterk/wfu/
 Main file repository           : /Volumes/Home/Users/peterk/tmp/molpro.8xRKIpSHip/

 id        : peterk

 Nodes                  nprocs
 Peters-Mac-mini-2.local    1
 GA implementation: GlobalArrays
 GA implementation (serial work in mppx): heap memory

 Using customized tuning parameters: mindgm=1; mindgv=20; mindgc=4; mindgr=1; noblas=0; minvec=7
 default implementation of scratch files=df  


 Variables initialized (1009), CPU time= 0.00 sec
 gthresh,energy=1e-14
 geometry={
 O
 H , O , r
 H , O , r , h, theta
 }
 r=1 Ang
 theta=104
 basis,cc-pvdz
 rhf
 {fci,dump=H2O-VDZ.fcidump;core,1}
 {ccsd;eom,-3.1,-2.2,-2.3;core,1}
 Commands initialized (809), CPU time= 0.01 sec, 660 directives.
 Default parameters read. Elapsed time= 0.08 sec

 Checking input...
 Passed
1


                                         ***  PROGRAM SYSTEM MOLPRO  ***
                                       Copyright, TTI GmbH Stuttgart, 2015
                                    Version 2021.2 linked May 13 2021 09:06:09


 **********************************************************************************************************************************
 LABEL *                                                                                 
  64 bit serial version                                                                  DATE: 16-May-21          TIME: 17:31:31  
 **********************************************************************************************************************************

 SHA1:             9c29d03b29da90752de06649c8b1ede2a364b710
 **********************************************************************************************************************************

 Memory per process:       400 MW
 Total memory per node:    400 MW

 GA preallocation disabled
 GA check disabled

 Variable memory set to 400.0 MW


 THRESHOLDS:

 ZERO    =  1.00D-12  ONEINT  =  1.00D-12  TWOINT  =  1.00D-11  PREFAC  =  1.00D-14  XXXXXX  =  1.00D-09  EORDER  =  1.00D-04
 ENERGY  =  1.00D-14  ETEST   =  0.00D+00  EDENS   =  0.00D+00  THRDEDEF=  1.00D-06  GRADIENT=  1.00D-05  STEP    =  1.00D-03
 ORBITAL =  1.00D-05  CIVEC   =  1.00D-05  COEFF   =  1.00D-04  PRINTCI =  5.00D-02  PUNCHCI =  9.90D+01  OPTGRAD =  3.00D-04
 OPTENERG=  1.00D-06  OPTSTEP =  3.00D-04  THRGRAD =  1.00D-10  COMPRESS=  1.00D-11  VARMIN  =  1.00D-07  VARMAX  =  1.00D-03
 THRDOUB =  0.00D+00  THRDIV  =  1.00D-05  THRRED  =  1.00D-07  THRPSP  =  1.00D+00  THRDC   =  1.00D-10  THRCS   =  1.00D-10
 THRNRM  =  1.00D-08  THREQ   =  0.00D+00  THRDE   =  1.00D+00  THRREF  =  1.00D-05  SPARFAC =  1.00D+00  THRDLP  =  1.00D-07
 THRDIA  =  1.00D-10  THRDLS  =  1.00D-07  THRGPS  =  0.00D+00  THRKEX  =  0.00D+00  THRDIS  =  2.00D-01  THRVAR  =  1.00D-10
 THRLOC  =  1.00D-06  THRGAP  =  1.00D-06  THRLOCT = -1.00D+00  THRGAPT = -1.00D+00  THRORB  =  1.00D-06  THRMLTP =  0.00D+00
 THRCPQCI=  1.00D-10  KEXTA   =  0.00D+00  THRCOARS=  0.00D+00  SYMTOL  =  1.00D-06  GRADTOL =  1.00D-06  THROVL  =  1.00D-08
 THRORTH =  1.00D-08  THRDLOVL= -1.00D+00  GRID    =  1.00D-06  GRIDMAX =  1.00D-03  DTMAX   =  0.00D+00  THROCCDE=  1.00D-01
 THROCCDE=  1.00D-01  THRPRINT=  2.50D-01

 SETTING R              =         1.00000000  ANG                             
 SETTING THETA          =       104.00000000                                  
 SETTING BASIS          =    CC-PVDZ


 Recomputing integrals since basis changed


 Using spherical harmonics

 Library entry O      S cc-pVDZ              selected for orbital group  1
 Library entry O      P cc-pVDZ              selected for orbital group  1
 Library entry O      D cc-pVDZ              selected for orbital group  1
 Library entry H      S cc-pVDZ              selected for orbital group  2
 Library entry H      P cc-pVDZ              selected for orbital group  2


 PROGRAM * SEWARD (Integral evaluation for generally contracted gaussian basis sets)     Author: Roland Lindh, 1990

 Geometry written to block  1 of record 700

 Orientation using atomic masses  
 Molecule type: Asymmetric top,     Order of principal axis = 2
 Symmetry elements: X,Y
 Rotational constants:     261.8030209    744.7420498    403.7273998 GHz  (calculated with average atomic masses)

 Point group  C2v 



 ATOMIC COORDINATES

 NR  ATOM    CHARGE       X              Y              Z

   1  O       8.00    0.000000000    0.000000000   -0.130186067
   2  H       1.00    0.000000000    1.489124508    1.033245507
   3  H       1.00    0.000000000   -1.489124508    1.033245507

 Bond lengths in Bohr (Angstrom)

 1-2  1.889726125  1-3  1.889726125
     ( 1.000000000)     ( 1.000000000)

 Bond angles

  2-1-3  104.00000000

 NUCLEAR CHARGE:                   10
 NUMBER OF PRIMITIVE AOS:          41
 NUMBER OF SYMMETRY AOS:           40
 NUMBER OF CONTRACTIONS:           24   (   11A1  +    4B1  +    7B2  +    2A2  )
 NUMBER OF INNER CORE ORBITALS:     0   (    0A1  +    0B1  +    0B2  +    0A2  )
 NUMBER OF OUTER CORE ORBITALS:     1   (    1A1  +    0B1  +    0B2  +    0A2  )
 NUMBER OF VALENCE ORBITALS:        6   (    3A1  +    1B1  +    2B2  +    0A2  )


 NUCLEAR REPULSION ENERGY    8.80260313

 Eigenvalues of metric

         1 0.184E-01 0.563E-01 0.166E+00 0.226E+00 0.552E+00 0.987E+00 0.101E+01 0.128E+01
         2 0.183E+00 0.564E+00 0.110E+01 0.220E+01
         3 0.502E-01 0.101E+00 0.183E+00 0.704E+00 0.102E+01 0.120E+01 0.255E+01
         4 0.656E+00 0.130E+01


 Contracted 2-electron integrals neglected if value below      1.0D-14
 AO integral compression algorithm  1   Integral accuracy      1.0D-14

     0.262 MB (compressed) written to integral file (100.0%)


 NUMBER OF SORTED TWO-ELECTRON INTEGRALS:      13826.     BUFFER LENGTH:  32768
 NUMBER OF SEGMENTS:   1  SEGMENT LENGTH:      13826      RECORD LENGTH: 524288

 Memory used in sort:       0.57 MW

 SORT1 READ       19290. AND WROTE       12665. INTEGRALS IN      1 RECORDS. CPU TIME:     0.00 SEC, REAL TIME:     0.00 SEC
 SORT2 READ       12665. AND WROTE       13826. INTEGRALS IN      1 RECORDS. CPU TIME:     0.00 SEC, REAL TIME:     0.01 SEC

 FILE SIZES:   FILE 1:    30.2 MBYTE,  FILE 4:     4.2 MBYTE,   TOTAL:     34.5 MBYTE

 OPERATOR DM      FOR CENTER  0  COORDINATES:    0.000000    0.000000    0.000000


 **********************************************************************************************************************************
 DATASETS  * FILE   NREC   LENGTH (MB)   RECORD NAMES
              1      19       28.68       500      610      700      900      950      970     1000      129      960     1100   
                                          VAR    BASINP    GEOM    SYMINP    ZMAT    AOBASIS   BASIS     P2S    ABASIS      S 
                                         1400     1410     1200     1210     1080     1600     1650     1300     1700   
                                           T        V       H0       H01     AOSYM     SMH    MOLCAS    ERIS     OPER   

 PROGRAMS   *        TOTAL       INT
 CPU TIMES  *         0.39      0.30
 REAL TIME  *         0.76 SEC
 DISK USED  *        33.13 MB
 **********************************************************************************************************************************


 Program * Restricted Hartree-Fock

 Orbital guess generated from atomic densities. Full valence occupancy:    4   1   2   0

 Initial occupancy:   3   1   1   0

 NELEC=   10   SYM=1   MS2= 0   THRE=1.0D-12   THRD=1.0D-06   THRG=1.0D-06  HFMA2=F  DIIS_START=2   DIIS_MAX=10   DIIS_INCORE=F

 Level shifts:    0.00 (CLOSED)    0.00 (OPEN)    0.30 (GAP_MIN)

 ITER           ETOT              DE          GRAD        DDIFF     DIIS  NEXP   TIME(IT)  TIME(TOT)  DIAG
   1      -75.98142996     -75.98142996     0.00D+00     0.40D+00     0     0       0.02      0.02    start
   2      -76.01168651      -0.03025655     0.37D-01     0.77D-01     1     0       0.00      0.02    diag
   3      -76.02117970      -0.00949319     0.21D-01     0.26D-01     2     0       0.00      0.02    diag
   4      -76.02143362      -0.00025393     0.23D-02     0.49D-02     3     0       0.00      0.02    diag
   5      -76.02145722      -0.00002359     0.67D-03     0.17D-02     4     0       0.01      0.03    diag
   6      -76.02145795      -0.00000073     0.10D-03     0.27D-03     5     0       0.00      0.03    diag
   7      -76.02145796      -0.00000001     0.14D-04     0.45D-04     6     0       0.00      0.03    diag
   8      -76.02145796      -0.00000000     0.12D-05     0.31D-05     7     0       0.00      0.03    diag
   9      -76.02145796      -0.00000000     0.16D-06     0.40D-06     8     0       0.00      0.03    diag
  10      -76.02145796      -0.00000000     0.39D-07     0.12D-06     9     0       0.00      0.03    diag/orth
  11      -76.02145796       0.00000000     0.63D-08     0.13D-07     0     0       0.00      0.03    diag

 Final occupancy:   3   1   1   0

 !RHF STATE 1.1 Energy                -76.021457963432
  RHF One-electron energy            -122.445699919107
  RHF Two-electron energy              37.621638821408
  RHF Kinetic energy                   75.836755768357
  RHF Nuclear energy                    8.802603134267
  RHF Virial quotient                  -1.002435523424

 !RHF STATE 1.1 Dipole moment           0.00000000     0.00000000     0.82747526
 Dipole moment /Debye                   0.00000000     0.00000000     2.10323232

 Orbital energies:

           1.1          2.1          3.1          4.1          5.1
    -20.558142    -1.316554    -0.559731     0.177946     0.818232

           1.2          2.2          3.2
     -0.490580     1.198450     1.665402

           1.3          2.3          3.3
     -0.676204     0.249509     0.758670

           1.4          2.4
      1.467616     3.296062


 HOMO      1.2    -0.490580 =     -13.3494eV
 LUMO      4.1     0.177946 =       4.8422eV
 LUMO-HOMO         0.668526 =      18.1915eV

 Orbitals saved in record  2100.2


 **********************************************************************************************************************************
 DATASETS  * FILE   NREC   LENGTH (MB)   RECORD NAMES
              1      19       28.68       500      610      700      900      950      970     1000      129      960     1100   
                                          VAR    BASINP    GEOM    SYMINP    ZMAT    AOBASIS   BASIS     P2S    ABASIS      S 
                                         1400     1410     1200     1210     1080     1600     1650     1300     1700   
                                           T        V       H0       H01     AOSYM     SMH    MOLCAS    ERIS     OPER   

              2       4        2.63       700     1000      520     2100   
                                         GEOM     BASIS   MCVARS     RHF  

 PROGRAMS   *        TOTAL   RHF-SCF       INT
 CPU TIMES  *         0.44      0.05      0.30
 REAL TIME  *         0.83 SEC
 DISK USED  *        33.13 MB
 **********************************************************************************************************************************


 PROGRAM * FCI (Full CI)     Author: P.J. Knowles, 1984


 Molecular orbitals read from record     2100.2  Type=RHF/CANONICAL  

 Frozen orbitals:              1 (  1  0  0  0  0  0  0  0)
 Active orbitals:             23 ( 10  4  7  2  0  0  0  0)
 Active electrons:             8
 Spin quantum number:          0.0

 Transformed integrals will be written to file h2o-vdz.fcidump
 File format: FCIDUMP.

 Load integrals                0.9 sec
 Transform integrals           0.9 sec
 Run Hamiltonian processor DUMP    
 Symmetry:                   1
 Trial vector:                  0.00
 Result vector:                 0.00
 Maximum iterations:           90
 Convergence threshold:         0.0000100
 RHS vector:                    0.00
 Hamiltonian shift:             0.0000000
 Output threshold:              0.0500000
 Options:                        0
 Number of roots:             1


 **********************************************************************************************************************************
 DATASETS  * FILE   NREC   LENGTH (MB)   RECORD NAMES
              1      19       28.68       500      610      700      900      950      970     1000      129      960     1100   
                                          VAR    BASINP    GEOM    SYMINP    ZMAT    AOBASIS   BASIS     P2S    ABASIS      S 
                                         1400     1410     1200     1210     1080     1600     1650     1300     1700   
                                           T        V       H0       H01     AOSYM     SMH    MOLCAS    ERIS     OPER   

              2       4        2.63       700     1000      520     2100   
                                         GEOM     BASIS   MCVARS     RHF  

 PROGRAMS   *        TOTAL       FCI   RHF-SCF       INT
 CPU TIMES  *         0.46      0.02      0.05      0.30
 REAL TIME  *         0.87 SEC
 DISK USED  *        33.13 MB
 **********************************************************************************************************************************


 PROGRAM * CCSD (Closed-shell coupled cluster)     Authors: C. Hampel, H.-J. Werner, 1991, M. Deegan, P.J. Knowles, 1992


 States requested for EOM calculation: 2.1 3.1 1.2 2.2 1.3 2.3

 Convergence thresholds:  THRVAR = 1.00D-18  THRDEN = 1.00D-14

 Number of core orbitals:           1 (   1   0   0   0 )
 Number of closed-shell orbitals:   4 (   2   1   1   0 )
 Number of external orbitals:      19 (   8   3   6   2 )

 Molecular orbitals read from record     2100.2  Type=RHF/CANONICAL  

 Number of N-1 electron functions:               4
 Number of N-2 electron functions:              10
 Number of singly external CSFs:                25
 Number of doubly external CSFs:               805
 Total number of CSFs:                         831

 Length of J-op  integral file:               0.00 MB
 Length of K-op  integral file:               0.04 MB
 Length of 3-ext integral record:             0.00 MB

 Integral transformation finished. Total CPU:   0.01 sec, npass=  1  Memory used:   0.07 MW

 Reference energy:                    -76.02145796

 MP2 singlet pair energy:              -0.12791939
 MP2 triplet pair energy:              -0.07682857
 MP2 correlation energy:               -0.20474797
 MP2 total energy:                    -76.22620593

 SCS-MP2 correlation energy:           -0.20130772   (PS=  1.200000  PT=  0.333333)
 SCS-MP2 total energy:                -76.22276568

 ITER.      SQ.NORM     CORR.ENERGY   TOTAL ENERGY   ENERGY CHANGE        DEN1      VAR(S)    VAR(P)  DIIS     TIME  TIME/IT
   1      1.05525642    -0.21319342   -76.23465138    -0.00844545    -0.00454104  0.33D-03  0.76D-03  1  1     0.01     0.01
   2      1.05889747    -0.21424827   -76.23570623    -0.00105485    -0.00419946  0.69D-05  0.73D-04  2  2     0.01     0.00
   3      1.05990554    -0.21434108   -76.23579904    -0.00009281    -0.00071236  0.28D-05  0.31D-05  3  3     0.01     0.00
   4      1.06014854    -0.21434617   -76.23580413    -0.00000509    -0.00012243  0.22D-06  0.20D-06  4  4     0.01     0.00
   5      1.06019937    -0.21434441   -76.23580237     0.00000176    -0.00002078  0.60D-07  0.13D-07  5  5     0.01     0.00
   6      1.06020804    -0.21434431   -76.23580227     0.00000010     0.00000024  0.68D-08  0.14D-08  6  6     0.01     0.00
   7      1.06021213    -0.21434423   -76.23580219     0.00000008    -0.00000039  0.24D-09  0.12D-09  6  1     0.02     0.00
   8      1.06021264    -0.21434417   -76.23580213     0.00000006     0.00000014  0.80D-11  0.93D-11  6  2     0.02     0.00
   9      1.06021281    -0.21434415   -76.23580212     0.00000001    -0.00000007  0.16D-12  0.60D-12  6  3     0.02     0.00
  10      1.06021285    -0.21434415   -76.23580211     0.00000000    -0.00000003  0.49D-14  0.19D-13  6  4     0.02     0.00
  11      1.06021286    -0.21434415   -76.23580211     0.00000000    -0.00000001  0.54D-15  0.80D-15  6  6     0.02     0.00
  12      1.06021286    -0.21434415   -76.23580211     0.00000000    -0.00000000  0.12D-16  0.31D-16  6  5     0.02     0.00
  13      1.06021286    -0.21434415   -76.23580211     0.00000000    -0.00000000  0.23D-17  0.25D-17  6  1     0.03     0.00
  14      1.06021286    -0.21434415   -76.23580211     0.00000000    -0.00000000  0.52D-18  0.17D-18  6  2     0.03     0.00
  15      1.06021286    -0.21434415   -76.23580211     0.00000000    -0.00000000  0.96D-19  0.15D-19  6  3     0.03     0.00
  16      1.06021286    -0.21434415   -76.23580211     0.00000000     0.00000000  0.10D-19  0.33D-20  6  4     0.03     0.00
  17      1.06021286    -0.21434415   -76.23580211     0.00000000    -0.00000000  0.10D-21  0.10D-21  6  1     0.03     0.00
  18      1.06021286    -0.21434415   -76.23580211     0.00000000    -0.00000000  0.14D-23  0.65D-23  6  6     0.03     0.00
  19      1.06021286    -0.21434415   -76.23580211    -0.00000000     0.00000000  0.87D-25  0.43D-24  6  5     0.04     0.00
  20      1.06021286    -0.21434415   -76.23580211     0.00000000     0.00000000  0.13D-25  0.18D-25  6  2     0.04     0.00
  21      1.06021286    -0.21434415   -76.23580211     0.00000000     0.00000000  0.76D-27  0.96D-27  6  3     0.04     0.00

 Norm of t1 vector:      0.02650168      S-energy:    -0.00000000      T1 diagnostic:  0.00662542
                                                                       D1 diagnostic:  0.01299835
                                                                       D2 diagnostic:  0.12897121 (internal)

 Doubles amplitudes (print threshold =  0.500E-01):

         I         J         SYM. A    SYM. B    A         B      T(IJ, AB)

         3         3         2         2         1         1     -0.05146679


 RESULTS
 =======

  Reference energy                    -76.021457963432
  CCSD singlet pair energy             -0.146391875025
  CCSD triplet pair energy             -0.067952275723
  CCSD correlation energy              -0.214344150972

 !CCSD total energy                   -76.235802114404

 Timing summary (sec):

 STEP                 CPU(USER)    SYS     CPU(TOT)    WALL
 Transformation          0.01      0.00      0.01      0.01
 CCSD iterations         0.03      0.01      0.04      0.06

 Program statistics:

 Available memory in ccsd:               399999933
 Min. memory needed in ccsd:                  5195
 Max. memory used in ccsd:                    5547
 Max. memory used in cckext:                 38269 (21 integral passes)


 Starting EOM-CCSD program.     Author: T. Korona (1999)

 <F|T> is nonzero and equal to        -0.0000000002


 EOM-CCSD FOR    2 EXCITED STATES OF SYMMETRY 1    STATE(S)  1  2


 Number of N-1 electron functions:               4
 Number of N-2 electron functions:              10
 Number of singly external CSFs:                25
 Number of doubly external CSFs:               805
 Total number of CSFs:                         831

 Iter. Vector     |HC-EC|         E_new-E_old   Excitation energy    Total energy

   0     1      0.469471E+00      0.488071E+00     0.4880712673    -75.7477308473                        
   0     2      0.415986E+00      0.709527E+00     0.7095265561    -75.5262755585                        

   1     1      0.841091E-01     -0.984625E-01     0.3896087424    -75.8461933722                        
   1     2      0.758069E-01     -0.704733E-01     0.6390532194    -75.5967488953                        

   2     1      0.357726E-01     -0.348095E-02     0.3861277877    -75.8496743269                        
   2     2      0.393302E-01     -0.287193E-02     0.6361812935    -75.5996208211                        

   3     1      0.129432E-01     -0.650787E-03     0.3854770002    -75.8503251144                        
   3     2      0.211807E-01     -0.788892E-03     0.6353924016    -75.6004097130                        

   4     1      0.435025E-02     -0.846372E-05     0.3854685365    -75.8503335781                        
   4     2      0.109761E-01     -0.217148E-03     0.6351752534    -75.6006268612                        

   5     1      0.151552E-02     -0.156255E-05     0.3854669740    -75.8503351407                        
   5     2      0.458702E-02     -0.288015E-04     0.6351464520    -75.6006556627                        

   6     1      0.518519E-03      0.179202E-05     0.3854687660    -75.8503333486                        
   6     2      0.220658E-02     -0.212929E-04     0.6351251591    -75.6006769556                        

   7     1      0.183011E-03      0.887722E-06     0.3854696537    -75.8503324609                        
   7     2      0.134492E-02      0.400966E-05     0.6351291687    -75.6006729459                        

   8     1      0.663327E-04     -0.497818E-08     0.3854696487    -75.8503324659                        
   8     2      0.676622E-03     -0.209994E-06     0.6351289587    -75.6006731559                        

   9     1      0.272186E-04     -0.100366E-06     0.3854695484    -75.8503325663                        
   9     2      0.267720E-03      0.529605E-06     0.6351294883    -75.6006726263                        

  10     1      0.971847E-05     -0.371768E-07     0.3854695112    -75.8503326034                        
  10     2      0.879869E-04     -0.423050E-06     0.6351290653    -75.6006730493                        

  11     1      0.318839E-05      0.175412E-07     0.3854695287    -75.8503325859                        
  11     2      0.298166E-04      0.113571E-06     0.6351291789    -75.6006729358                        

  12     1      0.997672E-06      0.670511E-08     0.3854695354    -75.8503325792                        
  12     2      0.110769E-04     -0.788105E-08     0.6351291710    -75.6006729436                        

  13     1      0.277923E-06     -0.347964E-09     0.3854695351    -75.8503325795                        
  13     2      0.330263E-05      0.876489E-08     0.6351291797    -75.6006729349                        

  14     1      0.802282E-07     -0.478197E-09     0.3854695346    -75.8503325800                        
  14     2      0.115202E-05      0.169109E-08     0.6351291814    -75.6006729332                        

  15     1      0.260571E-07     -0.115304E-09     0.3854695345    -75.8503325801                        
  15     2      0.442590E-06      0.186700E-08     0.6351291833    -75.6006729313                        

  16     1      0.792030E-08      0.524519E-10     0.3854695345    -75.8503325801                        
  16     2      0.166440E-06      0.121659E-08     0.6351291845    -75.6006729301                        

  17     1      0.238890E-08      0.226969E-10     0.3854695346    -75.8503325801                        
  17     2      0.633389E-07      0.342431E-09     0.6351291849    -75.6006729298                        

  18     1      0.673061E-09      0.566269E-12     0.3854695346    -75.8503325801                        
  18     2      0.222457E-07     -0.624872E-10     0.6351291848    -75.6006729298                        

  19     1      0.167287E-09     -0.816847E-12     0.3854695346    -75.8503325801  Refresh               
  19     2      0.671354E-08      0.123401E-10     0.6351291848    -75.6006729298  Refresh               

  20     1      0.503381E-10     -0.230149E-12     0.3854695346    -75.8503325801                        
  20     2      0.225830E-08      0.308864E-12     0.6351291848    -75.6006729298                        

  21     1      0.162392E-10     -0.255740E-12     0.3854695346    -75.8503325801                        
  21     2      0.918476E-09     -0.253908E-12     0.6351291848    -75.6006729298                        

  22     1      0.497961E-11      0.562328E-13     0.3854695346    -75.8503325801                        
  22     2      0.370212E-09      0.728861E-12     0.6351291848    -75.6006729298                        

  23     1      0.198003E-11     -0.616729E-13     0.3854695346    -75.8503325801                        
  23     2      0.165696E-09     -0.106293E-11     0.6351291848    -75.6006729298                        

  24     1                        0.129341E-13     0.3854695346    -75.8503325801  Not updated!!!        
  24     2      0.778728E-10      0.251021E-12     0.6351291848    -75.6006729298                        

  25     1                        0.233147E-14     0.3854695346    -75.8503325801  Not updated!!!        
  25     2      0.404147E-10     -0.742961E-12     0.6351291848    -75.6006729298                        

  26     1                        0.832667E-15     0.3854695346    -75.8503325801  Not updated!!!        
  26     2      0.186772E-10      0.438316E-12     0.6351291848    -75.6006729298                        

  27     1                       -0.183187E-14     0.3854695346    -75.8503325801  Not updated!!!        
  27     2      0.702873E-11     -0.131006E-13     0.6351291848    -75.6006729298                        

  28     1                        0.133227E-14     0.3854695346    -75.8503325801  Not updated!!!        
  28     2      0.264780E-11      0.210942E-14     0.6351291848    -75.6006729298  Converged             

  Results for state  2.1: Excitation energy         0.38546953 au       10.489 eV       84600.78 cm-1                                        

  Coefficient     Excitation
     0.96207      3.1 ->  4.1
    -0.10953      1.3 ->  2.3     3.1 ->  4.1
     0.08698      3.1 ->  5.1
    -0.08632      3.1 ->  4.1     3.1 ->  4.1
    -0.08138      1.3 ->  2.3
    -0.07094      1.2 ->  2.2     3.1 ->  4.1
    -0.06512      3.1 ->  6.1     3.1 ->  4.1
    -0.06277      1.3 ->  3.3     3.1 ->  4.1
    -0.05597      1.3 ->  4.1     3.1 ->  2.3
    -0.05526      2.1 ->  4.1

  Contribution of reference determinant     -0.01622

  Results for state  3.1: Excitation energy         0.63512918 au       17.283 eV      139394.74 cm-1                                        

  Coefficient     Excitation
    -0.95715      1.3 ->  2.3
     0.10928      1.2 ->  2.2
     0.10363      1.3 ->  2.3     1.3 ->  2.3
     0.08450      3.1 ->  6.1
    -0.07827      3.1 ->  4.1
     0.07539      1.3 ->  2.3     3.1 ->  4.1
     0.07269      3.1 ->  5.1
    -0.06425      1.3 ->  3.3
     0.05228      1.3 ->  4.1     1.3 ->  4.1
    -0.05183      3.1 ->  3.3     2.1 ->  2.3

  Contribution of reference determinant      0.01539


 EOM-CCSD FOR    2 EXCITED STATES OF SYMMETRY 2    STATE(S)  1  2


 Number of N-1 electron functions:               4
 Number of N-2 electron functions:              10
 Number of singly external CSFs:                16
 Number of doubly external CSFs:               686
 Total number of CSFs:                         703
 INISINGL ( 20) is greater than number of singles CSFs, reset it to  16

 Iter. Vector     |HC-EC|         E_new-E_old   Excitation energy    Total energy

   0     1      0.447359E+00      0.370175E+00     0.3701752725    -75.8656268421                        
   0     2      0.508675E+00      0.956097E+00     0.9560965899    -75.2797055247                        

   1     1      0.780326E-01     -0.821663E-01     0.2880089790    -75.9477931356                        
   1     2      0.115969E+00     -0.118648E+00     0.8374489768    -75.3983531378                        

   2     1      0.318558E-01     -0.268991E-02     0.2853190714    -75.9504830432                        
   2     2      0.674716E-01     -0.803528E-02     0.8294136966    -75.4063884181                        

   3     1      0.114044E-01     -0.406947E-03     0.2849121243    -75.9508899903                        
   3     2      0.262422E-01     -0.225431E-02     0.8271593843    -75.4086427304                        

   4     1      0.348902E-02     -0.285613E-04     0.2848835630    -75.9509185516                        
   4     2      0.141233E-01     -0.279977E-03     0.8268794076    -75.4089227070                        

   5     1      0.108928E-02     -0.125453E-04     0.2848710178    -75.9509310969                        
   5     2      0.878392E-02     -0.630014E-04     0.8268164062    -75.4089857084                        

   6     1      0.362520E-03     -0.246548E-05     0.2848685523    -75.9509335623                        
   6     2      0.332779E-02     -0.865090E-04     0.8267298972    -75.4090722174                        

   7     1      0.103025E-03      0.188909E-07     0.2848685712    -75.9509335434                        
   7     2      0.136658E-02     -0.168137E-04     0.8267130835    -75.4090890311                        

   8     1      0.318480E-04      0.146427E-06     0.2848687176    -75.9509333970                        
   8     2      0.569666E-03      0.138784E-05     0.8267144713    -75.4090876433                        

   9     1      0.776290E-05      0.411352E-07     0.2848687587    -75.9509333559                        
   9     2      0.226689E-03     -0.115813E-05     0.8267133132    -75.4090888014                        

  10     1      0.171796E-05     -0.883358E-08     0.2848687499    -75.9509333647                        
  10     2      0.883016E-04     -0.830030E-07     0.8267132302    -75.4090888844                        

  11     1      0.444510E-06     -0.697555E-09     0.2848687492    -75.9509333654                        
  11     2      0.285607E-04      0.186950E-06     0.8267134172    -75.4090886975                        

  12     1      0.135987E-06     -0.857536E-12     0.2848687492    -75.9509333654                        
  12     2      0.109484E-04      0.435765E-07     0.8267134607    -75.4090886539                        

  13     1      0.343781E-07      0.134722E-10     0.2848687492    -75.9509333654                        
  13     2      0.437806E-05      0.150360E-07     0.8267134758    -75.4090886389                        

  14     1      0.863850E-08     -0.254990E-10     0.2848687492    -75.9509333654                        
  14     2      0.172104E-05     -0.552512E-08     0.8267134703    -75.4090886444                        

  15     1      0.231874E-08     -0.643041E-11     0.2848687492    -75.9509333654                        
  15     2      0.570322E-06     -0.318035E-08     0.8267134671    -75.4090886476                        

  16     1      0.565741E-09      0.175709E-11     0.2848687492    -75.9509333654                        
  16     2      0.149618E-06      0.422493E-09     0.8267134675    -75.4090886471                        

  17     1      0.146191E-09      0.319189E-13     0.2848687492    -75.9509333654                        
  17     2      0.504835E-07      0.128121E-09     0.8267134676    -75.4090886470                        

  18     1      0.349421E-10     -0.983658E-13     0.2848687492    -75.9509333654                        
  18     2      0.177091E-07     -0.135442E-10     0.8267134676    -75.4090886470                        

  19     1      0.600641E-11     -0.198730E-13     0.2848687492    -75.9509333654  Refresh               
  19     2      0.495439E-08     -0.154321E-11     0.8267134676    -75.4090886470  Refresh               

  20     1      0.132740E-11      0.355271E-14     0.2848687492    -75.9509333654  Converged             
  20     2      0.166080E-08     -0.308376E-11     0.8267134676    -75.4090886470                        

  21     2      0.510420E-09     -0.170330E-11     0.8267134676    -75.4090886470                        

  22     2      0.204369E-09     -0.330247E-11     0.8267134676    -75.4090886470                        

  23     2      0.102463E-09      0.258915E-11     0.8267134676    -75.4090886470                        

  24     2      0.693597E-10     -0.169587E-11     0.8267134676    -75.4090886470                        

  25     2      0.606401E-10      0.767719E-12     0.8267134676    -75.4090886470                        

  26     2      0.400974E-10      0.147993E-12     0.8267134676    -75.4090886470                        

  27     2      0.200752E-10      0.265343E-13     0.8267134676    -75.4090886470                        

  28     2      0.896577E-11      0.486278E-13     0.8267134676    -75.4090886470                        

  29     2      0.457842E-11     -0.965894E-14     0.8267134676    -75.4090886470  Converged             

  Results for state  1.2: Excitation energy         0.28486875 au        7.752 eV       62521.46 cm-1                                        

  Coefficient     Excitation
     0.96656      1.2 ->  4.1
    -0.12066      1.3 ->  2.3     1.2 ->  4.1
     0.10941      1.2 ->  5.1
    -0.07620      1.2 ->  2.2     1.2 ->  4.1
    -0.07239      1.3 ->  3.3     1.2 ->  4.1
    -0.07151      1.2 ->  4.1     3.1 ->  6.1
    -0.06487      1.3 ->  4.1     1.2 ->  2.3
    -0.06188      1.2 ->  4.1     2.1 ->  4.1
    -0.06041      1.2 ->  4.1     3.1 ->  4.1
    -0.05265      1.3 ->  4.3     1.2 ->  4.1

  Results for state  2.2: Excitation energy         0.82671347 au       22.496 eV      181442.63 cm-1                                        

  Coefficient     Excitation
     0.95262      1.2 ->  5.1
    -0.11928      1.3 ->  3.3     1.2 ->  5.1
    -0.11511      1.3 ->  2.3     1.2 ->  5.1
    -0.10937      1.3 ->  5.1     1.2 ->  3.3
    -0.10227      1.2 ->  4.1
    -0.07140      1.3 ->  4.1     1.2 ->  3.3
    -0.06592      1.3 ->  5.1     1.2 ->  2.3
    -0.06437      1.2 ->  5.1     3.1 ->  4.1
    -0.06224      1.2 ->  5.1     2.1 ->  5.1
     0.05908      1.2 ->  6.1
    -0.05703      1.2 ->  2.2     1.2 ->  5.1
    -0.05343      1.2 ->  3.3     3.1 ->  2.3
    -0.05276      1.2 ->  5.1     3.1 ->  5.1
    -0.05243      1.2 ->  3.3     3.1 ->  3.3


 EOM-CCSD FOR    2 EXCITED STATES OF SYMMETRY 3    STATE(S)  1  2


 Number of N-1 electron functions:               4
 Number of N-2 electron functions:              10
 Number of singly external CSFs:                22
 Number of doubly external CSFs:               758
 Total number of CSFs:                         781

 Iter. Vector     |HC-EC|         E_new-E_old   Excitation energy    Total energy

   0     1      0.457042E+00      0.549164E+00     0.5491637081    -75.6866384066                        
   0     2      0.415331E+00      0.592511E+00     0.5925108508    -75.6432912639                        

   1     1      0.802518E-01     -0.855893E-01     0.4635744192    -75.7722276955                        
   1     2      0.712053E-01     -0.687509E-01     0.5237599151    -75.7120421995                        

   2     1      0.390177E-01     -0.326458E-02     0.4603098361    -75.7754922785                        
   2     2      0.348249E-01     -0.272777E-02     0.5210321482    -75.7147699664                        

   3     1      0.147859E-01     -0.813038E-03     0.4594967977    -75.7763053169                        
   3     2      0.135651E-01     -0.545050E-03     0.5204870980    -75.7153150166                        

   4     1      0.566517E-02     -0.115857E-04     0.4594852120    -75.7763169026                        
   4     2      0.658184E-02     -0.929146E-04     0.5203941834    -75.7154079312                        

   5     1      0.180352E-02      0.929723E-05     0.4594945093    -75.7763076054                        
   5     2      0.224474E-02     -0.141086E-04     0.5203800748    -75.7154220398                        

   6     1      0.512527E-03      0.541136E-06     0.4594950504    -75.7763070642                        
   6     2      0.831742E-03     -0.906797E-05     0.5203710069    -75.7154311078                        

   7     1      0.173935E-03      0.512184E-06     0.4594955626    -75.7763065520                        
   7     2      0.303599E-03     -0.118708E-05     0.5203698198    -75.7154322948                        

   8     1      0.528053E-04     -0.138272E-07     0.4594955488    -75.7763065659                        
   8     2      0.101661E-03     -0.673263E-06     0.5203691465    -75.7154329681                        

   9     1      0.170814E-04     -0.743048E-07     0.4594954744    -75.7763066402                        
   9     2      0.346175E-04     -0.213843E-06     0.5203689327    -75.7154331819                        

  10     1      0.603557E-05     -0.215076E-07     0.4594954529    -75.7763066617                        
  10     2      0.101838E-04     -0.984006E-07     0.5203688343    -75.7154332803                        

  11     1      0.196766E-05      0.145319E-08     0.4594954544    -75.7763066602                        
  11     2      0.308028E-05     -0.177487E-09     0.5203688341    -75.7154332805                        

  12     1      0.689946E-06     -0.120621E-09     0.4594954543    -75.7763066604                        
  12     2      0.893848E-06      0.245604E-08     0.5203688366    -75.7154332781                        

  13     1      0.206382E-06      0.162972E-10     0.4594954543    -75.7763066603                        
  13     2      0.256823E-06     -0.333965E-09     0.5203688362    -75.7154332784                        

  14     1      0.613349E-07     -0.261781E-09     0.4594954540    -75.7763066606                        
  14     2      0.761140E-07     -0.107665E-09     0.5203688361    -75.7154332785                        

  15     1      0.179176E-07     -0.796280E-11     0.4594954540    -75.7763066606                        
  15     2      0.211427E-07     -0.102197E-09     0.5203688360    -75.7154332786                        

  16     1      0.411384E-08     -0.138095E-11     0.4594954540    -75.7763066606                        
  16     2      0.580622E-08      0.216289E-10     0.5203688360    -75.7154332786                        

  17     1      0.104006E-08      0.694050E-11     0.4594954540    -75.7763066606                        
  17     2      0.158703E-08      0.391376E-11     0.5203688360    -75.7154332786                        

  18     1      0.285960E-09     -0.611455E-12     0.4594954540    -75.7763066606                        
  18     2      0.476632E-09     -0.175115E-11     0.5203688360    -75.7154332786                        

  19     1      0.775444E-10     -0.275002E-12     0.4594954540    -75.7763066606  Refresh               
  19     2      0.131237E-09      0.898170E-13     0.5203688360    -75.7154332786  Refresh               

  20     1      0.255938E-10     -0.573430E-13     0.4594954540    -75.7763066606                        
  20     2      0.360464E-10     -0.425215E-13     0.5203688360    -75.7154332786                        

  21     1      0.912261E-11     -0.504596E-13     0.4594954540    -75.7763066606                        
  21     2      0.126965E-10      0.274225E-13     0.5203688360    -75.7154332786                        

  22     1      0.225032E-11     -0.142664E-13     0.4594954540    -75.7763066606                        
  22     2      0.715736E-11     -0.321965E-14     0.5203688360    -75.7154332786  Converged             

  23     1                        0.244249E-14     0.4594954540    -75.7763066606  Not updated!!!        

  Results for state  1.3: Excitation energy         0.45949545 au       12.504 eV      100847.60 cm-1                                        

  Coefficient     Excitation
    -0.95984      3.1 ->  2.3
    -0.11127      3.1 ->  3.3
     0.09333      3.1 ->  2.3     3.1 ->  4.1
     0.08372      1.3 ->  2.3     3.1 ->  2.3
     0.08207      1.3 ->  4.1
    -0.08073      3.1 ->  4.3
     0.06494      1.2 ->  2.2     3.1 ->  2.3
     0.05555      3.1 ->  2.3     3.1 ->  6.1
     0.05115      3.1 ->  2.3     3.1 ->  5.1

  Results for state  2.3: Excitation energy         0.52036884 au       14.160 eV      114207.76 cm-1                                        

  Coefficient     Excitation
    -0.97052      1.3 ->  4.1
     0.10759      1.3 ->  2.3     1.3 ->  4.1
    -0.08638      3.1 ->  2.3
    -0.07865      1.3 ->  5.1
     0.05528      1.3 ->  4.1     1.2 ->  2.2
    -0.05280      3.1 ->  3.3     2.1 ->  4.1
     0.05192      1.3 ->  4.1     3.1 ->  6.1


  Final Results:
  ==============

  State    Exc. Energy    Total Energy     Weight(S)     Weight(D)      Delta E    Conv   Max. Coef.     Excitation
   1.1     0.00000000     -76.23580211     0.662E-03     0.561E-01     0.000E+00     Y
   1.2     0.28486875     -75.95093337     0.949E+00     0.513E-01     0.355E-14     Y     0.96656      1.2 ->  4.1
   2.1     0.38546953     -75.85033258     0.948E+00     0.518E-01    -0.617E-13     N     0.96207      3.1 ->  4.1
   1.3     0.45949545     -75.77630666     0.950E+00     0.499E-01    -0.143E-13     N    -0.95984      3.1 ->  2.3
   2.3     0.52036884     -75.71543328     0.960E+00     0.400E-01    -0.322E-14     Y    -0.97052      1.3 ->  4.1
   3.1     0.63512918     -75.60067293     0.954E+00     0.456E-01     0.211E-14     Y    -0.95715      1.3 ->  2.3
   2.2     0.82671347     -75.40908865     0.925E+00     0.749E-01    -0.966E-14     Y     0.95262      1.2 ->  5.1


 **********************************************************************************************************************************
 DATASETS  * FILE   NREC   LENGTH (MB)   RECORD NAMES
              1      20       28.73       500      610      700      900      950      970     1000      129      960     1100   
                                          VAR    BASINP    GEOM    SYMINP    ZMAT    AOBASIS   BASIS     P2S    ABASIS      S 
                                         1400     1410     1200     1210     1080     1600     1650     1300     1700     1380   
                                           T        V       H0       H01     AOSYM     SMH    MOLCAS    ERIS     OPER     JKOP   

              2       4        2.63       700     1000      520     2100   
                                         GEOM     BASIS   MCVARS     RHF  

 PROGRAMS   *        TOTAL      CCSD       FCI   RHF-SCF       INT
 CPU TIMES  *         0.78      0.32      0.02      0.05      0.30
 REAL TIME  *         1.33 SEC
 DISK USED  *        33.13 MB
 **********************************************************************************************************************************

 CCSD/cc-pVDZ energy=    -75.715433278589

            CCSD         RHF-SCF
    -76.23580211    -76.02145796
 **********************************************************************************************************************************
 Molpro calculation terminated
