
 Working directory              : /Volumes/Home/Users/peterk/tmp/molpro.lM1buE5tOp/
 Global scratch directory       : /Volumes/Home/Users/peterk/tmp/molpro.lM1buE5tOp/
 Wavefunction directory         : /Volumes/Home/Users/peterk/wfu/
 Main file repository           : /Volumes/Home/Users/peterk/tmp/molpro.lM1buE5tOp/

 id        : peterk

 Nodes                  nprocs
 Peters-Mac-mini-2.local    1
 GA implementation: GlobalArrays
 GA implementation (serial work in mppx): heap memory

 Using customized tuning parameters: mindgm=1; mindgv=20; mindgc=4; mindgr=1; noblas=0; minvec=7
 default implementation of scratch files=df  


 Variables initialized (1009), CPU time= 0.01 sec
 gthresh,energy=1e-14
 geometry={
 O
 H , O , r
 H , O , r , h, theta
 }
 r=1 Ang
 theta=104
 basis,cc-pvdz
 rhf
 {fci,dump=H2O-VDZ.fcidump;core}
 {ccsd;eom,-3.1,-2.2,-2.3;core}
 Commands initialized (809), CPU time= 0.01 sec, 660 directives.
 Default parameters read. Elapsed time= 0.08 sec

 Checking input...
 Passed
1


                                         ***  PROGRAM SYSTEM MOLPRO  ***
                                       Copyright, TTI GmbH Stuttgart, 2015
                                    Version 2021.2 linked May 13 2021 09:06:09


 **********************************************************************************************************************************
 LABEL *                                                                                 
  64 bit serial version                                                                  DATE: 14-May-21          TIME: 09:34:59  
 **********************************************************************************************************************************

 SHA1:             9c29d03b29da90752de06649c8b1ede2a364b710
 **********************************************************************************************************************************

 Memory per process:       400 MW
 Total memory per node:    400 MW

 GA preallocation disabled
 GA check disabled

 Variable memory set to 400.0 MW


 THRESHOLDS:

 ZERO    =  1.00D-12  ONEINT  =  1.00D-12  TWOINT  =  1.00D-11  PREFAC  =  1.00D-14  XXXXXX  =  1.00D-09  EORDER  =  1.00D-04
 ENERGY  =  1.00D-14  ETEST   =  0.00D+00  EDENS   =  0.00D+00  THRDEDEF=  1.00D-06  GRADIENT=  1.00D-05  STEP    =  1.00D-03
 ORBITAL =  1.00D-05  CIVEC   =  1.00D-05  COEFF   =  1.00D-04  PRINTCI =  5.00D-02  PUNCHCI =  9.90D+01  OPTGRAD =  3.00D-04
 OPTENERG=  1.00D-06  OPTSTEP =  3.00D-04  THRGRAD =  1.00D-10  COMPRESS=  1.00D-11  VARMIN  =  1.00D-07  VARMAX  =  1.00D-03
 THRDOUB =  0.00D+00  THRDIV  =  1.00D-05  THRRED  =  1.00D-07  THRPSP  =  1.00D+00  THRDC   =  1.00D-10  THRCS   =  1.00D-10
 THRNRM  =  1.00D-08  THREQ   =  0.00D+00  THRDE   =  1.00D+00  THRREF  =  1.00D-05  SPARFAC =  1.00D+00  THRDLP  =  1.00D-07
 THRDIA  =  1.00D-10  THRDLS  =  1.00D-07  THRGPS  =  0.00D+00  THRKEX  =  0.00D+00  THRDIS  =  2.00D-01  THRVAR  =  1.00D-10
 THRLOC  =  1.00D-06  THRGAP  =  1.00D-06  THRLOCT = -1.00D+00  THRGAPT = -1.00D+00  THRORB  =  1.00D-06  THRMLTP =  0.00D+00
 THRCPQCI=  1.00D-10  KEXTA   =  0.00D+00  THRCOARS=  0.00D+00  SYMTOL  =  1.00D-06  GRADTOL =  1.00D-06  THROVL  =  1.00D-08
 THRORTH =  1.00D-08  THRDLOVL= -1.00D+00  GRID    =  1.00D-06  GRIDMAX =  1.00D-03  DTMAX   =  0.00D+00  THROCCDE=  1.00D-01
 THROCCDE=  1.00D-01  THRPRINT=  2.50D-01

 SETTING R              =         1.00000000  ANG                             
 SETTING THETA          =       104.00000000                                  
 SETTING BASIS          =    CC-PVDZ


 Recomputing integrals since basis changed


 Using spherical harmonics

 Library entry O      S cc-pVDZ              selected for orbital group  1
 Library entry O      P cc-pVDZ              selected for orbital group  1
 Library entry O      D cc-pVDZ              selected for orbital group  1
 Library entry H      S cc-pVDZ              selected for orbital group  2
 Library entry H      P cc-pVDZ              selected for orbital group  2


 PROGRAM * SEWARD (Integral evaluation for generally contracted gaussian basis sets)     Author: Roland Lindh, 1990

 Geometry written to block  1 of record 700

 Orientation using atomic masses  
 Molecule type: Asymmetric top,     Order of principal axis = 2
 Symmetry elements: X,Y
 Rotational constants:     261.8030209    744.7420498    403.7273998 GHz  (calculated with average atomic masses)

 Point group  C2v 



 ATOMIC COORDINATES

 NR  ATOM    CHARGE       X              Y              Z

   1  O       8.00    0.000000000    0.000000000   -0.130186067
   2  H       1.00    0.000000000    1.489124508    1.033245507
   3  H       1.00    0.000000000   -1.489124508    1.033245507

 Bond lengths in Bohr (Angstrom)

 1-2  1.889726125  1-3  1.889726125
     ( 1.000000000)     ( 1.000000000)

 Bond angles

  2-1-3  104.00000000

 NUCLEAR CHARGE:                   10
 NUMBER OF PRIMITIVE AOS:          41
 NUMBER OF SYMMETRY AOS:           40
 NUMBER OF CONTRACTIONS:           24   (   11A1  +    4B1  +    7B2  +    2A2  )
 NUMBER OF INNER CORE ORBITALS:     0   (    0A1  +    0B1  +    0B2  +    0A2  )
 NUMBER OF OUTER CORE ORBITALS:     1   (    1A1  +    0B1  +    0B2  +    0A2  )
 NUMBER OF VALENCE ORBITALS:        6   (    3A1  +    1B1  +    2B2  +    0A2  )


 NUCLEAR REPULSION ENERGY    8.80260313

 Eigenvalues of metric

         1 0.184E-01 0.563E-01 0.166E+00 0.226E+00 0.552E+00 0.987E+00 0.101E+01 0.128E+01
         2 0.183E+00 0.564E+00 0.110E+01 0.220E+01
         3 0.502E-01 0.101E+00 0.183E+00 0.704E+00 0.102E+01 0.120E+01 0.255E+01
         4 0.656E+00 0.130E+01


 Contracted 2-electron integrals neglected if value below      1.0D-14
 AO integral compression algorithm  1   Integral accuracy      1.0D-14

     0.262 MB (compressed) written to integral file (100.0%)


 NUMBER OF SORTED TWO-ELECTRON INTEGRALS:      13826.     BUFFER LENGTH:  32768
 NUMBER OF SEGMENTS:   1  SEGMENT LENGTH:      13826      RECORD LENGTH: 524288

 Memory used in sort:       0.57 MW

 SORT1 READ       19290. AND WROTE       12665. INTEGRALS IN      1 RECORDS. CPU TIME:     0.00 SEC, REAL TIME:     0.00 SEC
 SORT2 READ       12665. AND WROTE       13826. INTEGRALS IN      1 RECORDS. CPU TIME:     0.01 SEC, REAL TIME:     0.01 SEC

 FILE SIZES:   FILE 1:    30.2 MBYTE,  FILE 4:     4.2 MBYTE,   TOTAL:     34.5 MBYTE

 OPERATOR DM      FOR CENTER  0  COORDINATES:    0.000000    0.000000    0.000000


 **********************************************************************************************************************************
 DATASETS  * FILE   NREC   LENGTH (MB)   RECORD NAMES
              1      19       28.68       500      610      700      900      950      970     1000      129      960     1100   
                                          VAR    BASINP    GEOM    SYMINP    ZMAT    AOBASIS   BASIS     P2S    ABASIS      S 
                                         1400     1410     1200     1210     1080     1600     1650     1300     1700   
                                           T        V       H0       H01     AOSYM     SMH    MOLCAS    ERIS     OPER   

 PROGRAMS   *        TOTAL       INT
 CPU TIMES  *         0.43      0.34
 REAL TIME  *         0.92 SEC
 DISK USED  *        33.13 MB
 **********************************************************************************************************************************


 Program * Restricted Hartree-Fock

 Orbital guess generated from atomic densities. Full valence occupancy:    4   1   2   0

 Initial occupancy:   3   1   1   0

 NELEC=   10   SYM=1   MS2= 0   THRE=1.0D-12   THRD=1.0D-06   THRG=1.0D-06  HFMA2=F  DIIS_START=2   DIIS_MAX=10   DIIS_INCORE=F

 Level shifts:    0.00 (CLOSED)    0.00 (OPEN)    0.30 (GAP_MIN)

 ITER           ETOT              DE          GRAD        DDIFF     DIIS  NEXP   TIME(IT)  TIME(TOT)  DIAG
   1      -75.98142996     -75.98142996     0.00D+00     0.40D+00     0     0       0.02      0.02    start
   2      -76.01168651      -0.03025655     0.37D-01     0.77D-01     1     0       0.00      0.02    diag
   3      -76.02117970      -0.00949319     0.21D-01     0.26D-01     2     0       0.00      0.02    diag
   4      -76.02143362      -0.00025393     0.23D-02     0.49D-02     3     0       0.00      0.02    diag
   5      -76.02145722      -0.00002359     0.67D-03     0.17D-02     4     0       0.00      0.02    diag
   6      -76.02145795      -0.00000073     0.10D-03     0.27D-03     5     0       0.00      0.02    diag
   7      -76.02145796      -0.00000001     0.14D-04     0.45D-04     6     0       0.00      0.02    diag
   8      -76.02145796      -0.00000000     0.12D-05     0.31D-05     7     0       0.00      0.02    diag
   9      -76.02145796      -0.00000000     0.16D-06     0.40D-06     8     0       0.00      0.02    diag
  10      -76.02145796      -0.00000000     0.39D-07     0.12D-06     9     0       0.00      0.02    diag/orth
  11      -76.02145796       0.00000000     0.63D-08     0.13D-07     0     0       0.00      0.02    diag

 Final occupancy:   3   1   1   0

 !RHF STATE 1.1 Energy                -76.021457963432
  RHF One-electron energy            -122.445699919107
  RHF Two-electron energy              37.621638821408
  RHF Kinetic energy                   75.836755768357
  RHF Nuclear energy                    8.802603134267
  RHF Virial quotient                  -1.002435523424

 !RHF STATE 1.1 Dipole moment           0.00000000     0.00000000     0.82747526
 Dipole moment /Debye                   0.00000000     0.00000000     2.10323232

 Orbital energies:

           1.1          2.1          3.1          4.1          5.1
    -20.558142    -1.316554    -0.559731     0.177946     0.818232

           1.2          2.2          3.2
     -0.490580     1.198450     1.665402

           1.3          2.3          3.3
     -0.676204     0.249509     0.758670

           1.4          2.4
      1.467616     3.296062


 HOMO      1.2    -0.490580 =     -13.3494eV
 LUMO      4.1     0.177946 =       4.8422eV
 LUMO-HOMO         0.668526 =      18.1915eV

 Orbitals saved in record  2100.2


 **********************************************************************************************************************************
 DATASETS  * FILE   NREC   LENGTH (MB)   RECORD NAMES
              1      19       28.68       500      610      700      900      950      970     1000      129      960     1100   
                                          VAR    BASINP    GEOM    SYMINP    ZMAT    AOBASIS   BASIS     P2S    ABASIS      S 
                                         1400     1410     1200     1210     1080     1600     1650     1300     1700   
                                           T        V       H0       H01     AOSYM     SMH    MOLCAS    ERIS     OPER   

              2       4        2.63       700     1000      520     2100   
                                         GEOM     BASIS   MCVARS     RHF  

 PROGRAMS   *        TOTAL   RHF-SCF       INT
 CPU TIMES  *         0.48      0.05      0.34
 REAL TIME  *         0.99 SEC
 DISK USED  *        33.13 MB
 **********************************************************************************************************************************


 PROGRAM * FCI (Full CI)     Author: P.J. Knowles, 1984


 Molecular orbitals read from record     2100.2  Type=RHF/CANONICAL  

 Frozen orbitals:              0 (  0  0  0  0  0  0  0  0)
 Active orbitals:             24 ( 11  4  7  2  0  0  0  0)
 Active electrons:            10
 Spin quantum number:          0.0

 Transformed integrals will be written to file h2o-vdz.fcidump
 File format: FCIDUMP.

 Load integrals                1.0 sec
 Transform integrals           1.0 sec
 Run Hamiltonian processor DUMP    
 Symmetry:                   1
 Trial vector:                  0.00
 Result vector:                 0.00
 Maximum iterations:           90
 Convergence threshold:         0.0000100
 RHS vector:                    0.00
 Hamiltonian shift:             0.0000000
 Output threshold:              0.0500000
 Options:                        0
 Number of roots:             1


 **********************************************************************************************************************************
 DATASETS  * FILE   NREC   LENGTH (MB)   RECORD NAMES
              1      19       28.68       500      610      700      900      950      970     1000      129      960     1100   
                                          VAR    BASINP    GEOM    SYMINP    ZMAT    AOBASIS   BASIS     P2S    ABASIS      S 
                                         1400     1410     1200     1210     1080     1600     1650     1300     1700   
                                           T        V       H0       H01     AOSYM     SMH    MOLCAS    ERIS     OPER   

              2       4        2.63       700     1000      520     2100   
                                         GEOM     BASIS   MCVARS     RHF  

 PROGRAMS   *        TOTAL       FCI   RHF-SCF       INT
 CPU TIMES  *         0.51      0.03      0.05      0.34
 REAL TIME  *         1.04 SEC
 DISK USED  *        33.13 MB
 **********************************************************************************************************************************


 PROGRAM * CCSD (Closed-shell coupled cluster)     Authors: C. Hampel, H.-J. Werner, 1991, M. Deegan, P.J. Knowles, 1992


 States requested for EOM calculation: 2.1 3.1 1.2 2.2 1.3 2.3

 Convergence thresholds:  THRVAR = 1.00D-18  THRDEN = 1.00D-14

 Number of closed-shell orbitals:   5 (   3   1   1   0 )
 Number of external orbitals:      19 (   8   3   6   2 )

 Molecular orbitals read from record     2100.2  Type=RHF/CANONICAL  

 Number of N-1 electron functions:               5
 Number of N-2 electron functions:              15
 Number of singly external CSFs:                33
 Number of doubly external CSFs:              1277
 Total number of CSFs:                        1311

 Length of J-op  integral file:               0.00 MB
 Length of K-op  integral file:               0.04 MB
 Length of 3-ext integral record:             0.00 MB

 Integral transformation finished. Total CPU:   0.00 sec, npass=  1  Memory used:   0.07 MW

 Reference energy:                    -76.02145796

 MP2 singlet pair energy:              -0.12901036
 MP2 triplet pair energy:              -0.07799409
 MP2 correlation energy:               -0.20700445
 MP2 total energy:                    -76.22846242

 SCS-MP2 correlation energy:           -0.20334209   (PS=  1.200000  PT=  0.333333)
 SCS-MP2 total energy:                -76.22480006

 ITER.      SQ.NORM     CORR.ENERGY   TOTAL ENERGY   ENERGY CHANGE        DEN1      VAR(S)    VAR(P)  DIIS     TIME  TIME/IT
   1      1.05525549    -0.21521956   -76.23667752    -0.00821510    -0.00431314  0.33D-03  0.76D-03  1  1     0.01     0.01
   2      1.05882981    -0.21626302   -76.23772099    -0.00104347    -0.00412624  0.67D-05  0.74D-04  2  2     0.01     0.00
   3      1.05989111    -0.21635593   -76.23781389    -0.00009291    -0.00077460  0.27D-05  0.31D-05  3  3     0.01     0.00
   4      1.06013616    -0.21636227   -76.23782023    -0.00000634    -0.00012136  0.21D-06  0.20D-06  4  4     0.02     0.00
   5      1.06018614    -0.21636075   -76.23781871     0.00000152    -0.00002009  0.60D-07  0.13D-07  5  5     0.02     0.00
   6      1.06019550    -0.21636056   -76.23781852     0.00000019    -0.00000029  0.69D-08  0.14D-08  6  6     0.02     0.00
   7      1.06019941    -0.21636049   -76.23781845     0.00000007    -0.00000029  0.32D-09  0.13D-09  6  1     0.02     0.00
   8      1.06020002    -0.21636043   -76.23781839     0.00000006     0.00000014  0.94D-11  0.10D-10  6  2     0.02     0.00
   9      1.06020022    -0.21636041   -76.23781837     0.00000002    -0.00000009  0.29D-12  0.57D-12  6  5     0.03     0.00
  10      1.06020024    -0.21636041   -76.23781837     0.00000000     0.00000000  0.21D-14  0.24D-13  6  3     0.03     0.00
  11      1.06020024    -0.21636041   -76.23781837    -0.00000000     0.00000000  0.33D-15  0.68D-15  6  4     0.03     0.00
  12      1.06020024    -0.21636041   -76.23781837    -0.00000000     0.00000000  0.29D-16  0.62D-16  6  6     0.03     0.00
  13      1.06020024    -0.21636041   -76.23781837     0.00000000    -0.00000000  0.52D-17  0.52D-17  6  1     0.04     0.00
  14      1.06020024    -0.21636041   -76.23781837     0.00000000    -0.00000000  0.14D-17  0.30D-18  6  2     0.04     0.00
  15      1.06020024    -0.21636041   -76.23781837     0.00000000    -0.00000000  0.18D-18  0.46D-19  6  5     0.04     0.00
  16      1.06020024    -0.21636041   -76.23781837     0.00000000    -0.00000000  0.15D-19  0.31D-20  6  3     0.05     0.00
  17      1.06020024    -0.21636041   -76.23781837     0.00000000     0.00000000  0.65D-21  0.57D-21  6  4     0.05     0.00
  18      1.06020024    -0.21636041   -76.23781837    -0.00000000     0.00000000  0.20D-22  0.47D-22  6  6     0.05     0.00
  19      1.06020024    -0.21636041   -76.23781837     0.00000000     0.00000000  0.83D-24  0.26D-23  6  1     0.05     0.00
  20      1.06020024    -0.21636041   -76.23781837     0.00000000    -0.00000000  0.88D-25  0.20D-24  6  2     0.06     0.00

 Norm of t1 vector:      0.02641869      S-energy:    -0.00000000      T1 diagnostic:  0.00590740
                                                                       D1 diagnostic:  0.01294007
                                                                       D2 diagnostic:  0.12892221 (internal)

 Doubles amplitudes (print threshold =  0.500E-01):

         I         J         SYM. A    SYM. B    A         B      T(IJ, AB)

         4         4         2         2         1         1     -0.05144755


 RESULTS
 =======

  Reference energy                    -76.021457963432
  CCSD singlet pair energy             -0.147362059652
  CCSD triplet pair energy             -0.068998351506
  CCSD correlation energy              -0.216360411378

 !CCSD total energy                   -76.237818374811

 Timing summary (sec):

 STEP                 CPU(USER)    SYS     CPU(TOT)    WALL
 CCSD iterations         0.06      0.02      0.08      0.08

 Program statistics:

 Available memory in ccsd:               399999897
 Min. memory needed in ccsd:                  6882
 Max. memory used in ccsd:                    7571
 Max. memory used in cckext:                 40100 (20 integral passes)


 Starting EOM-CCSD program.     Author: T. Korona (1999)

 <F|T> is nonzero and equal to        -0.0000000002


 EOM-CCSD FOR    2 EXCITED STATES OF SYMMETRY 1    STATE(S)  1  2


 Number of N-1 electron functions:               5
 Number of N-2 electron functions:              15
 Number of singly external CSFs:                33
 Number of doubly external CSFs:              1277
 Total number of CSFs:                        1311

 Iter. Vector     |HC-EC|         E_new-E_old   Excitation energy    Total energy

   0     1      0.479771E+00      0.488379E+00     0.4883787278    -75.7494396472                        
   0     2      0.425630E+00      0.709798E+00     0.7097983618    -75.5280200132                        

   1     1      0.954772E-01     -0.986592E-01     0.3897195775    -75.8480987975                        
   1     2      0.843188E-01     -0.706538E-01     0.6391445859    -75.5986737891                        

   2     1      0.376621E-01     -0.359837E-02     0.3861212049    -75.8516971701                        
   2     2      0.403863E-01     -0.294267E-02     0.6362019123    -75.6016164628                        

   3     1      0.148858E-01     -0.653476E-03     0.3854677292    -75.8523506458                        
   3     2      0.251923E-01     -0.794301E-03     0.6354076111    -75.6024107639                        

   4     1      0.495444E-02     -0.519614E-05     0.3854625331    -75.8523558419                        
   4     2      0.113134E-01     -0.215377E-03     0.6351922345    -75.6026261405                        

   5     1      0.170362E-02     -0.209705E-05     0.3854604360    -75.8523579390                        
   5     2      0.533539E-02     -0.277316E-04     0.6351645030    -75.6026538721                        

   6     1      0.652292E-03      0.140292E-05     0.3854618390    -75.8523565361                        
   6     2      0.258997E-02     -0.228464E-04     0.6351416566    -75.6026767185                        

   7     1      0.194306E-03      0.102620E-05     0.3854628652    -75.8523555099                        
   7     2      0.142687E-02      0.415823E-05     0.6351458148    -75.6026725602                        

   8     1      0.834970E-04      0.244372E-07     0.3854628896    -75.8523554854                        
   8     2      0.901914E-03     -0.949790E-07     0.6351457198    -75.6026726552                        

   9     1      0.315488E-04     -0.117041E-06     0.3854627726    -75.8523556025                        
   9     2      0.293149E-03      0.440729E-06     0.6351461605    -75.6026722145                        

  10     1      0.112160E-04     -0.352398E-07     0.3854627373    -75.8523556377                        
  10     2      0.107597E-03     -0.415847E-06     0.6351457447    -75.6026726303                        

  11     1      0.424872E-05      0.177753E-07     0.3854627551    -75.8523556199                        
  11     2      0.394721E-04      0.132948E-06     0.6351458776    -75.6026724974                        

  12     1      0.112320E-05      0.685273E-08     0.3854627619    -75.8523556131                        
  12     2      0.120631E-04     -0.909210E-08     0.6351458686    -75.6026725065                        

  13     1      0.366883E-06     -0.320807E-09     0.3854627616    -75.8523556134                        
  13     2      0.495626E-05      0.859343E-08     0.6351458771    -75.6026724979                        

  14     1      0.114785E-06     -0.381567E-09     0.3854627612    -75.8523556138                        
  14     2      0.175380E-05      0.208189E-08     0.6351458792    -75.6026724958                        

  15     1      0.306054E-07     -0.162247E-09     0.3854627611    -75.8523556139                        
  15     2      0.536124E-06      0.185204E-08     0.6351458811    -75.6026724940                        

  16     1      0.109412E-07      0.488428E-10     0.3854627611    -75.8523556139                        
  16     2      0.213394E-06      0.119716E-08     0.6351458823    -75.6026724928                        

  17     1      0.320875E-08      0.249755E-10     0.3854627612    -75.8523556139                        
  17     2      0.826856E-07      0.402816E-09     0.6351458827    -75.6026724924                        

  18     1      0.844628E-09      0.155920E-11     0.3854627612    -75.8523556139                        
  18     2      0.286171E-07     -0.454298E-10     0.6351458826    -75.6026724924                        

  19     1      0.222355E-09     -0.758893E-12     0.3854627612    -75.8523556139  Refresh               
  19     2      0.935985E-08      0.962397E-11     0.6351458826    -75.6026724924  Refresh               

  20     1      0.638532E-10     -0.262235E-12     0.3854627612    -75.8523556139                        
  20     2      0.314100E-08     -0.115086E-11     0.6351458826    -75.6026724924                        

  21     1      0.208658E-10     -0.290157E-12     0.3854627612    -75.8523556139                        
  21     2      0.112330E-08      0.232592E-12     0.6351458826    -75.6026724924                        

  22     1      0.639334E-11      0.682232E-13     0.3854627612    -75.8523556139                        
  22     2      0.480378E-09      0.100309E-11     0.6351458826    -75.6026724924                        

  23     1      0.275551E-11     -0.654476E-13     0.3854627612    -75.8523556139                        
  23     2      0.212820E-09     -0.133626E-11     0.6351458826    -75.6026724924                        

  24     1                        0.144884E-13     0.3854627612    -75.8523556139  Not updated!!!        
  24     2      0.988550E-10      0.431988E-12     0.6351458826    -75.6026724924                        

  25     1                        0.888178E-15     0.3854627612    -75.8523556139  Not updated!!!        
  25     2      0.482637E-10     -0.849987E-12     0.6351458826    -75.6026724924                        

  26     1                        0.133227E-14     0.3854627612    -75.8523556139  Not updated!!!        
  26     2      0.269665E-10      0.477507E-12     0.6351458826    -75.6026724924                        

  27     1                       -0.222045E-15     0.3854627612    -75.8523556139  Not updated!!!        
  27     2      0.872108E-11     -0.275335E-13     0.6351458826    -75.6026724924                        

  28     1                       -0.943690E-15     0.3854627612    -75.8523556139  Not updated!!!        
  28     2      0.363521E-11      0.101030E-13     0.6351458826    -75.6026724924                        

  29     1                        0.943690E-15     0.3854627612    -75.8523556139  Not updated!!!        
  29     2      0.155771E-11      0.136557E-13     0.6351458826    -75.6026724924                        

  30     1                       -0.666134E-15     0.3854627612    -75.8523556139  Not updated!!!        
  30     2                       -0.444089E-15     0.6351458826    -75.6026724924  Not updated!!!        

  Results for state  2.1: Excitation energy         0.38546276 au       10.489 eV       84599.30 cm-1                                        

  Coefficient     Excitation
     0.96209      3.1 ->  4.1
    -0.10948      1.3 ->  2.3     3.1 ->  4.1
     0.08701      3.1 ->  5.1
    -0.08628      3.1 ->  4.1     3.1 ->  4.1
    -0.08134      1.3 ->  2.3
    -0.07093      1.2 ->  2.2     3.1 ->  4.1
    -0.06504      3.1 ->  6.1     3.1 ->  4.1
    -0.06273      1.3 ->  3.3     3.1 ->  4.1
    -0.05594      1.3 ->  4.1     3.1 ->  2.3
    -0.05544      2.1 ->  4.1

  Contribution of reference determinant     -0.01604

  Results for state  3.1: Excitation energy         0.63514588 au       17.283 eV      139398.41 cm-1                                        

  Coefficient     Excitation
    -0.95719      1.3 ->  2.3
     0.10924      1.2 ->  2.2
     0.10358      1.3 ->  2.3     1.3 ->  2.3
     0.08449      3.1 ->  6.1
    -0.07820      3.1 ->  4.1
     0.07532      1.3 ->  2.3     3.1 ->  4.1
     0.07267      3.1 ->  5.1
    -0.06429      1.3 ->  3.3
     0.05226      1.3 ->  4.1     1.3 ->  4.1
    -0.05176      3.1 ->  3.3     2.1 ->  2.3

  Contribution of reference determinant      0.01529


 EOM-CCSD FOR    2 EXCITED STATES OF SYMMETRY 2    STATE(S)  1  2


 Number of N-1 electron functions:               5
 Number of N-2 electron functions:              15
 Number of singly external CSFs:                19
 Number of doubly external CSFs:              1047
 Total number of CSFs:                        1067
 INISINGL ( 20) is greater than number of singles CSFs, reset it to  19

 Iter. Vector     |HC-EC|         E_new-E_old   Excitation energy    Total energy

   0     1      0.456962E+00      0.370506E+00     0.3705056573    -75.8673127177                        
   0     2      0.517522E+00      0.956433E+00     0.9564332378    -75.2813851372                        

   1     1      0.868642E-01     -0.823714E-01     0.2881342376    -75.9496841375                        
   1     2      0.124639E+00     -0.118848E+00     0.8375855202    -75.4002328548                        

   2     1      0.349720E-01     -0.277839E-02     0.2853558501    -75.9524625249                        
   2     2      0.685251E-01     -0.813056E-02     0.8294549583    -75.4083634167                        

   3     1      0.123093E-01     -0.401441E-03     0.2849544086    -75.9528639664                        
   3     2      0.300484E-01     -0.224700E-02     0.8272079572    -75.4106104179                        

   4     1      0.474728E-02     -0.231460E-04     0.2849312626    -75.9528871125                        
   4     2      0.146766E-01     -0.278297E-03     0.8269296601    -75.4108887149                        

   5     1      0.128269E-02     -0.150861E-04     0.2849161765    -75.9529021986                        
   5     2      0.994732E-02     -0.603022E-04     0.8268693579    -75.4109490171                        

   6     1      0.457333E-03     -0.242962E-05     0.2849137468    -75.9529046282                        
   6     2      0.492165E-02     -0.863760E-04     0.8267829820    -75.4110353931                        

   7     1      0.183823E-03      0.148315E-06     0.2849138952    -75.9529044799                        
   7     2      0.193780E-02     -0.163184E-04     0.8267666635    -75.4110517115                        

   8     1      0.371283E-04      0.818297E-07     0.2849139770    -75.9529043980                        
   8     2      0.708973E-03     -0.130991E-06     0.8267665326    -75.4110518425                        

   9     1      0.122113E-04      0.461130E-07     0.2849140231    -75.9529043519                        
   9     2      0.328433E-03     -0.998216E-06     0.8267655343    -75.4110528407                        

  10     1      0.293663E-05     -0.335068E-08     0.2849140197    -75.9529043553                        
  10     2      0.102888E-03      0.155753E-07     0.8267655499    -75.4110528251                        

  11     1      0.562118E-06     -0.252495E-08     0.2849140172    -75.9529043578                        
  11     2      0.381929E-04      0.134781E-06     0.8267656847    -75.4110526903                        

  12     1      0.181854E-06     -0.774735E-10     0.2849140171    -75.9529043579                        
  12     2      0.144353E-04      0.520740E-07     0.8267657368    -75.4110526383                        

  13     1      0.495850E-07      0.885869E-10     0.2849140172    -75.9529043578                        
  13     2      0.490796E-05      0.190619E-07     0.8267657558    -75.4110526192                        

  14     1      0.142903E-07     -0.361476E-10     0.2849140172    -75.9529043578                        
  14     2      0.227092E-05     -0.672469E-08     0.8267657491    -75.4110526259                        

  15     1      0.326832E-08     -0.866168E-11     0.2849140172    -75.9529043578                        
  15     2      0.811806E-06     -0.290757E-08     0.8267657462    -75.4110526288                        

  16     1      0.843780E-09      0.205080E-11     0.2849140172    -75.9529043578                        
  16     2      0.232526E-06      0.141552E-09     0.8267657463    -75.4110526287                        

  17     1      0.229351E-09      0.203337E-12     0.2849140172    -75.9529043578                        
  17     2      0.818906E-07      0.154795E-09     0.8267657465    -75.4110526285                        

  18     1      0.484790E-10     -0.689448E-13     0.2849140172    -75.9529043578                        
  18     2      0.276926E-07      0.860001E-11     0.8267657465    -75.4110526285                        

  19     1      0.106572E-10     -0.346390E-13     0.2849140172    -75.9529043578  Refresh               
  19     2      0.856446E-08     -0.857925E-11     0.8267657465    -75.4110526285  Refresh               

  20     1      0.246822E-11      0.149880E-14     0.2849140172    -75.9529043578  Converged             
  20     2      0.360683E-08     -0.282241E-11     0.8267657465    -75.4110526285                        

  21     2      0.104379E-08     -0.224354E-11     0.8267657465    -75.4110526285                        

  22     2      0.390781E-09     -0.335221E-11     0.8267657465    -75.4110526285                        

  23     2      0.146095E-09      0.227385E-11     0.8267657465    -75.4110526285                        

  24     2      0.114957E-09     -0.215716E-11     0.8267657465    -75.4110526285                        

  25     2      0.114305E-09      0.151534E-11     0.8267657465    -75.4110526285                        

  26     2      0.603312E-10      0.350830E-13     0.8267657465    -75.4110526285                        

  27     2      0.289446E-10      0.729417E-13     0.8267657465    -75.4110526285                        

  28     2      0.153737E-10      0.437428E-13     0.8267657465    -75.4110526285                        

  29     2      0.781180E-11     -0.255351E-14     0.8267657465    -75.4110526285  Converged             

  Results for state  1.2: Excitation energy         0.28491402 au        7.753 eV       62531.40 cm-1                                        

  Coefficient     Excitation
    -0.96658      1.2 ->  4.1
     0.12060      1.3 ->  2.3     1.2 ->  4.1
    -0.10942      1.2 ->  5.1
     0.07619      1.2 ->  2.2     1.2 ->  4.1
     0.07235      1.3 ->  3.3     1.2 ->  4.1
     0.07148      1.2 ->  4.1     3.1 ->  6.1
     0.06485      1.3 ->  4.1     1.2 ->  2.3
     0.06185      1.2 ->  4.1     2.1 ->  4.1
     0.06040      1.2 ->  4.1     3.1 ->  4.1
     0.05264      1.3 ->  4.3     1.2 ->  4.1

  Results for state  2.2: Excitation energy         0.82676575 au       22.497 eV      181454.11 cm-1                                        

  Coefficient     Excitation
     0.95267      1.2 ->  5.1
    -0.11923      1.3 ->  3.3     1.2 ->  5.1
    -0.11504      1.3 ->  2.3     1.2 ->  5.1
    -0.10933      1.3 ->  5.1     1.2 ->  3.3
    -0.10227      1.2 ->  4.1
    -0.07131      1.3 ->  4.1     1.2 ->  3.3
    -0.06586      1.3 ->  5.1     1.2 ->  2.3
    -0.06435      1.2 ->  5.1     3.1 ->  4.1
    -0.06222      1.2 ->  5.1     2.1 ->  5.1
     0.05894      1.2 ->  6.1
    -0.05702      1.2 ->  2.2     1.2 ->  5.1
    -0.05334      1.2 ->  3.3     3.1 ->  2.3
    -0.05277      1.2 ->  5.1     3.1 ->  5.1
    -0.05238      1.2 ->  3.3     3.1 ->  3.3


 EOM-CCSD FOR    2 EXCITED STATES OF SYMMETRY 3    STATE(S)  1  2


 Number of N-1 electron functions:               5
 Number of N-2 electron functions:              15
 Number of singly external CSFs:                28
 Number of doubly external CSFs:              1209
 Total number of CSFs:                        1238

 Iter. Vector     |HC-EC|         E_new-E_old   Excitation energy    Total energy

   0     1      0.468048E+00      0.549488E+00     0.5494880477    -75.6883303274                        
   0     2      0.423995E+00      0.592777E+00     0.5927773977    -75.6450409773                        

   1     1      0.904130E-01     -0.858357E-01     0.4636523837    -75.7741659913                        
   1     2      0.787756E-01     -0.689251E-01     0.5238522815    -75.7139660935                        

   2     1      0.397052E-01     -0.335619E-02     0.4602961933    -75.7775221817                        
   2     2      0.360002E-01     -0.277829E-02     0.5210739871    -75.7167443879                        

   3     1      0.172032E-01     -0.815712E-03     0.4594804811    -75.7783378940                        
   3     2      0.157950E-01     -0.550897E-03     0.5205230904    -75.7172952846                        

   4     1      0.603469E-02     -0.100152E-04     0.4594704659    -75.7783479092                        
   4     2      0.673220E-02     -0.920496E-04     0.5204310408    -75.7173873343                        

   5     1      0.212412E-02      0.917987E-05     0.4594796457    -75.7783387293                        
   5     2      0.274403E-02     -0.132343E-04     0.5204178065    -75.7174005685                        

   6     1      0.703035E-03      0.234814E-06     0.4594798805    -75.7783384945                        
   6     2      0.861682E-03     -0.972300E-05     0.5204080835    -75.7174102915                        

   7     1      0.188711E-03      0.611763E-06     0.4594804923    -75.7783378827                        
   7     2      0.399913E-03     -0.122441E-05     0.5204068591    -75.7174115160                        

   8     1      0.775584E-04     -0.620357E-08     0.4594804861    -75.7783378889                        
   8     2      0.134265E-03     -0.625080E-06     0.5204062340    -75.7174121410                        

   9     1      0.235888E-04     -0.672515E-07     0.4594804188    -75.7783379562                        
   9     2      0.385463E-04     -0.248911E-06     0.5204059851    -75.7174123899                        

  10     1      0.677116E-05     -0.268470E-07     0.4594803920    -75.7783379830                        
  10     2      0.146823E-04     -0.973150E-07     0.5204058878    -75.7174124873                        

  11     1      0.277353E-05      0.972903E-09     0.4594803930    -75.7783379821                        
  11     2      0.422194E-05     -0.173241E-08     0.5204058860    -75.7174124890                        

  12     1      0.862708E-06      0.261657E-09     0.4594803932    -75.7783379818                        
  12     2      0.106991E-05      0.289268E-08     0.5204058889    -75.7174124861                        

  13     1      0.266476E-06     -0.738392E-10     0.4594803932    -75.7783379819                        
  13     2      0.393126E-06     -0.331602E-09     0.5204058886    -75.7174124864                        

  14     1      0.771988E-07     -0.270700E-09     0.4594803929    -75.7783379821                        
  14     2      0.100505E-06     -0.122607E-09     0.5204058885    -75.7174124866                        

  15     1      0.221095E-07     -0.223677E-11     0.4594803929    -75.7783379821                        
  15     2      0.286210E-07     -0.106616E-09     0.5204058884    -75.7174124867                        

  16     1      0.605884E-08     -0.114381E-11     0.4594803929    -75.7783379821                        
  16     2      0.821304E-08      0.199949E-10     0.5204058884    -75.7174124866                        

  17     1      0.136421E-08      0.632505E-11     0.4594803929    -75.7783379821                        
  17     2      0.206093E-08      0.466338E-11     0.5204058884    -75.7174124866                        

  18     1      0.401961E-09     -0.349942E-12     0.4594803929    -75.7783379821                        
  18     2      0.641682E-09     -0.150835E-11     0.5204058884    -75.7174124866                        

  19     1      0.106682E-09     -0.187017E-12     0.4594803929    -75.7783379821  Refresh               
  19     2      0.172289E-09      0.110245E-12     0.5204058884    -75.7174124866  Refresh               

  20     1      0.340683E-10     -0.109968E-12     0.4594803929    -75.7783379821                        
  20     2      0.474337E-10     -0.838218E-13     0.5204058884    -75.7174124866                        

  21     1      0.116058E-10     -0.437428E-13     0.4594803929    -75.7783379821                        
  21     2      0.155087E-10      0.272005E-13     0.5204058884    -75.7174124866                        

  22     1      0.359097E-11     -0.163203E-13     0.4594803929    -75.7783379821                        
  22     2      0.772145E-11     -0.277556E-14     0.5204058884    -75.7174124866  Converged             

  23     1                        0.394129E-14     0.4594803929    -75.7783379821  Not updated!!!        

  Results for state  1.3: Excitation energy         0.45948039 au       12.503 eV      100844.29 cm-1                                        

  Coefficient     Excitation
     0.95985      3.1 ->  2.3
     0.11133      3.1 ->  3.3
    -0.09325      3.1 ->  2.3     3.1 ->  4.1
    -0.08368      1.3 ->  2.3     3.1 ->  2.3
    -0.08209      1.3 ->  4.1
     0.08073      3.1 ->  4.3
    -0.06493      1.2 ->  2.2     3.1 ->  2.3
    -0.05549      3.1 ->  2.3     3.1 ->  6.1
    -0.05112      3.1 ->  2.3     3.1 ->  5.1

  Results for state  2.3: Excitation energy         0.52040589 au       14.161 eV      114215.89 cm-1                                        

  Coefficient     Excitation
     0.97054      1.3 ->  4.1
    -0.10755      1.3 ->  2.3     1.3 ->  4.1
     0.08649      3.1 ->  2.3
     0.07862      1.3 ->  5.1
    -0.05528      1.3 ->  4.1     1.2 ->  2.2
     0.05273      3.1 ->  3.3     2.1 ->  4.1
    -0.05191      1.3 ->  4.1     3.1 ->  6.1


  Final Results:
  ==============

  State    Exc. Energy    Total Energy     Weight(S)     Weight(D)      Delta E    Conv   Max. Coef.     Excitation
   1.1     0.00000000     -76.23781838     0.658E-03     0.561E-01     0.000E+00     Y
   1.2     0.28491402     -75.95290436     0.949E+00     0.513E-01     0.150E-14     Y    -0.96658      1.2 ->  4.1
   2.1     0.38546276     -75.85235561     0.948E+00     0.518E-01    -0.654E-13     N     0.96209      3.1 ->  4.1
   1.3     0.45948039     -75.77833798     0.950E+00     0.499E-01    -0.163E-13     N     0.95985      3.1 ->  2.3
   2.3     0.52040589     -75.71741249     0.960E+00     0.399E-01    -0.278E-14     Y     0.97054      1.3 ->  4.1
   3.1     0.63514588     -75.60267249     0.954E+00     0.456E-01     0.137E-13     N    -0.95719      1.3 ->  2.3
   2.2     0.82676575     -75.41105263     0.925E+00     0.748E-01    -0.255E-14     Y     0.95267      1.2 ->  5.1


 **********************************************************************************************************************************
 DATASETS  * FILE   NREC   LENGTH (MB)   RECORD NAMES
              1      20       28.75       500      610      700      900      950      970     1000      129      960     1100   
                                          VAR    BASINP    GEOM    SYMINP    ZMAT    AOBASIS   BASIS     P2S    ABASIS      S 
                                         1400     1410     1200     1210     1080     1600     1650     1300     1700     1380   
                                           T        V       H0       H01     AOSYM     SMH    MOLCAS    ERIS     OPER     JKOP   

              2       4        2.63       700     1000      520     2100   
                                         GEOM     BASIS   MCVARS     RHF  

 PROGRAMS   *        TOTAL      CCSD       FCI   RHF-SCF       INT
 CPU TIMES  *         0.96      0.45      0.03      0.05      0.34
 REAL TIME  *         1.67 SEC
 DISK USED  *        33.13 MB
 **********************************************************************************************************************************

 CCSD/cc-pVDZ energy=    -75.717412486637

            CCSD         RHF-SCF
    -76.23781838    -76.02145796
 **********************************************************************************************************************************
 Molpro calculation terminated
